REMARK SMILES Cc1ccc(C(=O)NC2Cc3ccccc3C2)c(C2CC2)n1
REMARK SMILES IDX 1 1 2 2 3 3 4 4 5 5 18 6 22 7 19 8 20 9 21 10 6 11 7 12 8 13
REMARK SMILES IDX 9 15 10 16 17 17 11 18 16 19 12 20 15 21 13 22 14 23
REMARK H PARENT 8 14
ROOT
ATOM      1  C   UNL     1      -5.975  -0.632  -1.713  1.00  0.00     0.067 C 
ATOM      2  C   UNL     1      -4.533  -0.338  -1.425  1.00  0.00     0.038 A 
ATOM      3  C   UNL     1      -3.793   0.445  -2.300  1.00  0.00     0.024 A 
ATOM      4  C   UNL     1      -2.459   0.691  -2.002  1.00  0.00     0.017 A 
ATOM      5  C   UNL     1      -1.905   0.146  -0.840  1.00  0.00     0.061 A 
ATOM      6  C   UNL     1      -2.707  -0.601   0.030  1.00  0.00     0.056 A 
ATOM      7  N   UNL     1      -4.010  -0.857  -0.287  1.00  0.00    -0.257 NA
ENDROOT
BRANCH   6   8
ATOM      8  C   UNL     1      -2.212  -1.156   1.352  1.00  0.00     0.039 C 
ATOM      9  C   UNL     1      -1.710  -0.230   2.437  1.00  0.00     0.011 C 
ATOM     10  C   UNL     1      -3.026  -0.924   2.607  1.00  0.00     0.011 C 
ENDBRANCH   6   8
BRANCH   5  11
ATOM     11  C   UNL     1      -0.479   0.417  -0.569  1.00  0.00     0.253 C 
ATOM     12  O   UNL     1      -0.067   1.569  -0.610  1.00  0.00    -0.269 OA
ATOM     13  N   UNL     1       0.309  -0.690  -0.344  1.00  0.00    -0.349 N 
ATOM     14  H   UNL     1      -0.104  -1.608  -0.446  1.00  0.00     0.164 HD
BRANCH  13  15
ATOM     15  C   UNL     1       1.736  -0.624  -0.076  1.00  0.00     0.091 C 
ATOM     16  C   UNL     1       2.596  -0.043  -1.221  1.00  0.00     0.061 C 
ATOM     17  C   UNL     1       2.127   0.156   1.201  1.00  0.00     0.061 C 
ATOM     18  C   UNL     1       3.823   0.377  -0.469  1.00  0.00    -0.043 A 
ATOM     19  C   UNL     1       3.558   0.490   0.901  1.00  0.00    -0.043 A 
ATOM     20  C   UNL     1       5.073   0.679  -0.982  1.00  0.00     0.004 A 
ATOM     21  C   UNL     1       4.537   0.907   1.786  1.00  0.00     0.004 A 
ATOM     22  C   UNL     1       6.071   1.087  -0.094  1.00  0.00     0.000 A 
ATOM     23  C   UNL     1       5.805   1.201   1.280  1.00  0.00     0.000 A 
ENDBRANCH  13  15
ENDBRANCH   5  11
TORSDOF 3
