REMARK SMILES Cc1c(Cl)c2nncn2c2sc(NC(=O)C3C[NH+](C4CC4)C3)c(N)c12
REMARK SMILES IDX 1 1 2 2 3 3 4 4 5 5 6 6 7 7 8 8 9 9 10 10 11 11 12 12 23 13
REMARK SMILES IDX 25 14 24 15 13 18 14 19 15 20 16 22 17 23 22 24 18 25 19 27
REMARK SMILES IDX 20 28 21 29
REMARK H PARENT 24 16 24 17 13 21 18 26
ROOT
ATOM      1  C   UNL     1      -4.960  -0.324   2.479  1.00  0.00     0.047 C 
ATOM      2  C   UNL     1      -4.817   0.096   1.042  1.00  0.00    -0.016 C 
ATOM      3  C   UNL     1      -5.883   0.352   0.234  1.00  0.00     0.089 C 
ATOM      4  Cl  UNL     1      -7.526   0.273   0.773  1.00  0.00    -0.080 Cl
ATOM      5  C   UNL     1      -5.691   0.701  -1.137  1.00  0.00     0.180 A 
ATOM      6  N   UNL     1      -6.519   0.994  -2.121  1.00  0.00    -0.129 NA
ATOM      7  N   UNL     1      -5.773   1.237  -3.253  1.00  0.00    -0.138 NA
ATOM      8  C   UNL     1      -4.508   1.087  -2.936  1.00  0.00     0.231 A 
ATOM      9  N   UNL     1      -4.395   0.753  -1.616  1.00  0.00    -0.271 N 
ATOM     10  C   UNL     1      -3.301   0.502  -0.809  1.00  0.00     0.114 A 
ATOM     11  S   UNL     1      -1.728   0.544  -1.376  1.00  0.00    -0.097 S 
ATOM     12  C   UNL     1      -1.133   0.173   0.186  1.00  0.00     0.121 A 
ATOM     13  C   UNL     1      -2.150   0.013   1.118  1.00  0.00     0.077 A 
ATOM     14  C   UNL     1      -3.452   0.189   0.525  1.00  0.00     0.040 A 
ENDROOT
BRANCH  13  15
ATOM     15  N   UNL     1      -1.923  -0.296   2.412  1.00  0.00    -0.396 N 
ATOM     16  H   UNL     1      -2.574  -0.047   3.147  1.00  0.00     0.156 HD
ATOM     17  H   UNL     1      -0.962  -0.244   2.772  1.00  0.00     0.156 HD
ENDBRANCH  13  15
BRANCH  12  18
ATOM     18  N   UNL     1       0.251   0.108   0.182  1.00  0.00    -0.315 N 
ATOM     19  C   UNL     1       1.053  -0.064   1.296  1.00  0.00     0.239 C 
ATOM     20  O   UNL     1       0.644  -0.093   2.460  1.00  0.00    -0.274 OA
ATOM     21  H   UNL     1       0.639   0.226  -0.743  1.00  0.00     0.170 HD
BRANCH  19  22
ATOM     22  C   UNL     1       2.551  -0.207   1.033  1.00  0.00     0.188 C 
ATOM     23  C   UNL     1       3.053  -1.226   0.006  1.00  0.00     0.282 C 
ATOM     24  C   UNL     1       3.290   0.845   0.202  1.00  0.00     0.282 C 
ATOM     25  N   UNL     1       4.075  -0.243  -0.434  1.00  0.00    -0.331 N 
ATOM     26  H   UNL     1       4.121  -0.153  -1.460  1.00  0.00     0.348 HD
BRANCH  25  27
ATOM     27  C   UNL     1       5.431  -0.452   0.117  1.00  0.00     0.184 C 
ATOM     28  C   UNL     1       6.386  -1.241  -0.730  1.00  0.00     0.071 C 
ATOM     29  C   UNL     1       6.557   0.245  -0.589  1.00  0.00     0.071 C 
ENDBRANCH  25  27
ENDBRANCH  19  22
ENDBRANCH  12  18
TORSDOF 4
