REMARK SMILES Cc1c(Cl)c2nncn2c2sc(C(=O)NC(=O)c3cncc(F)c3)c(N)c12
REMARK SMILES IDX 1 1 2 2 3 3 4 4 5 5 6 6 7 7 8 8 9 9 10 10 11 11 12 12 25 13
REMARK SMILES IDX 27 14 26 15 13 18 14 19 15 20 16 21 17 22 18 24 19 25 24 26
REMARK SMILES IDX 20 27 22 28 21 29 23 30
REMARK H PARENT 26 16 26 17 15 23
ROOT
ATOM      1  C   UNL     1      -4.803  -0.420  -1.771  1.00  0.00     0.047 C 
ATOM      2  C   UNL     1      -4.183  -0.121  -0.433  1.00  0.00    -0.016 C 
ATOM      3  C   UNL     1      -4.909   0.209   0.669  1.00  0.00     0.089 C 
ATOM      4  Cl  UNL     1      -6.639   0.281   0.683  1.00  0.00    -0.080 Cl
ATOM      5  C   UNL     1      -4.260   0.527   1.901  1.00  0.00     0.180 A 
ATOM      6  N   UNL     1      -4.703   0.871   3.095  1.00  0.00    -0.129 NA
ATOM      7  N   UNL     1      -3.615   1.077   3.914  1.00  0.00    -0.138 NA
ATOM      8  C   UNL     1      -2.533   0.854   3.203  1.00  0.00     0.231 A 
ATOM      9  N   UNL     1      -2.877   0.502   1.929  1.00  0.00    -0.271 N 
ATOM     10  C   UNL     1      -2.124   0.164   0.819  1.00  0.00     0.113 A 
ATOM     11  S   UNL     1      -0.452   0.139   0.830  1.00  0.00    -0.109 S 
ATOM     12  C   UNL     1      -0.417  -0.364  -0.818  1.00  0.00     0.118 A 
ATOM     13  C   UNL     1      -1.707  -0.505  -1.329  1.00  0.00     0.065 A 
ATOM     14  C   UNL     1      -2.725  -0.171  -0.373  1.00  0.00     0.038 A 
ENDROOT
BRANCH  13  15
ATOM     15  N   UNL     1      -1.918  -0.906  -2.604  1.00  0.00    -0.397 N 
ATOM     16  H   UNL     1      -2.756  -1.405  -2.882  1.00  0.00     0.156 HD
ATOM     17  H   UNL     1      -1.112  -1.228  -3.155  1.00  0.00     0.156 HD
ENDBRANCH  13  15
BRANCH  12  18
ATOM     18  C   UNL     1       0.851  -0.626  -1.508  1.00  0.00     0.270 C 
ATOM     19  O   UNL     1       0.884  -1.107  -2.638  1.00  0.00    -0.268 OA
ATOM     20  N   UNL     1       1.987  -0.222  -0.821  1.00  0.00    -0.287 N 
ATOM     21  C   UNL     1       3.278  -0.600  -1.134  1.00  0.00     0.259 C 
ATOM     22  O   UNL     1       3.601  -1.439  -1.964  1.00  0.00    -0.269 OA
ATOM     23  H   UNL     1       1.823   0.252   0.054  1.00  0.00     0.173 HD
BRANCH  21  24
ATOM     24  C   UNL     1       4.343   0.021  -0.313  1.00  0.00     0.061 A 
ATOM     25  C   UNL     1       4.249   1.329   0.154  1.00  0.00     0.125 A 
ATOM     26  C   UNL     1       5.498  -0.705  -0.017  1.00  0.00     0.056 A 
ATOM     27  N   UNL     1       5.192   1.926   0.922  1.00  0.00    -0.261 NA
ATOM     28  C   UNL     1       6.483  -0.108   0.756  1.00  0.00     0.142 A 
ATOM     29  C   UNL     1       6.295   1.189   1.205  1.00  0.00     0.150 A 
ATOM     30  F   UNL     1       7.597  -0.781   1.067  1.00  0.00    -0.205 F 
ENDBRANCH  21  24
ENDBRANCH  12  18
TORSDOF 3
