REMARK SMILES Cc1c(Cl)c2nncn2c2sc(-n3cc(NC(=O)C4Cc5ccccc5C4)cn3)c(N)c12
REMARK SMILES IDX 1 1 2 2 3 3 4 4 5 5 6 6 7 7 8 8 9 9 10 10 11 11 12 12 30 13
REMARK SMILES IDX 32 14 31 15 13 18 14 19 29 20 15 21 28 22 16 23 17 24 18 25
REMARK SMILES IDX 19 27 20 28 27 29 21 30 26 31 22 32 25 33 23 34 24 35
REMARK H PARENT 31 16 31 17 16 26
ROOT
ATOM      1  C   UNL     1      -5.789   1.488  -2.262  1.00  0.00     0.047 C 
ATOM      2  C   UNL     1      -6.132   1.183  -0.829  1.00  0.00    -0.016 C 
ATOM      3  C   UNL     1      -7.351   1.452  -0.288  1.00  0.00     0.089 C 
ATOM      4  Cl  UNL     1      -8.678   2.082  -1.205  1.00  0.00    -0.080 Cl
ATOM      5  C   UNL     1      -7.597   1.235   1.101  1.00  0.00     0.180 A 
ATOM      6  N   UNL     1      -8.657   1.403   1.869  1.00  0.00    -0.129 NA
ATOM      7  N   UNL     1      -8.313   1.054   3.156  1.00  0.00    -0.138 NA
ATOM      8  C   UNL     1      -7.052   0.681   3.146  1.00  0.00     0.231 A 
ATOM      9  N   UNL     1      -6.551   0.771   1.879  1.00  0.00    -0.271 N 
ATOM     10  C   UNL     1      -5.310   0.484   1.342  1.00  0.00     0.114 A 
ATOM     11  S   UNL     1      -4.041  -0.087   2.265  1.00  0.00    -0.095 S 
ATOM     12  C   UNL     1      -3.034  -0.146   0.880  1.00  0.00     0.143 A 
ATOM     13  C   UNL     1      -3.721   0.167  -0.289  1.00  0.00     0.079 A 
ATOM     14  C   UNL     1      -5.055   0.641  -0.003  1.00  0.00     0.040 A 
ENDROOT
BRANCH  13  15
ATOM     15  N   UNL     1      -3.213   0.004  -1.538  1.00  0.00    -0.396 N 
ATOM     16  H   UNL     1      -2.500  -0.709  -1.683  1.00  0.00     0.156 HD
ATOM     17  H   UNL     1      -3.846  -0.027  -2.331  1.00  0.00     0.156 HD
ENDBRANCH  13  15
BRANCH  12  18
ATOM     18  N   UNL     1      -1.684  -0.474   1.063  1.00  0.00    -0.226 N 
ATOM     19  C   UNL     1      -0.618  -0.324   0.196  1.00  0.00     0.142 A 
ATOM     20  N   UNL     1      -1.279  -1.011   2.242  1.00  0.00    -0.173 NA
ATOM     21  C   UNL     1       0.497  -0.816   0.828  1.00  0.00     0.080 A 
ATOM     22  C   UNL     1       0.028  -1.233   2.086  1.00  0.00     0.161 A 
BRANCH  21  23
ATOM     23  N   UNL     1       1.760  -0.831   0.265  1.00  0.00    -0.323 N 
ATOM     24  C   UNL     1       2.881  -1.344   0.898  1.00  0.00     0.228 C 
ATOM     25  O   UNL     1       2.880  -1.883   2.000  1.00  0.00    -0.274 OA
ATOM     26  H   UNL     1       1.847  -0.456  -0.670  1.00  0.00     0.170 HD
BRANCH  24  27
ATOM     27  C   UNL     1       4.138  -1.208   0.057  1.00  0.00     0.087 C 
ATOM     28  C   UNL     1       4.484   0.265  -0.237  1.00  0.00     0.049 C 
ATOM     29  C   UNL     1       5.384  -1.813   0.734  1.00  0.00     0.049 C 
ATOM     30  C   UNL     1       5.967   0.196  -0.413  1.00  0.00    -0.044 A 
ATOM     31  C   UNL     1       6.478  -0.985   0.133  1.00  0.00    -0.044 A 
ATOM     32  C   UNL     1       6.804   1.138  -0.985  1.00  0.00     0.004 A 
ATOM     33  C   UNL     1       7.837  -1.250   0.120  1.00  0.00     0.004 A 
ATOM     34  C   UNL     1       8.175   0.875  -1.015  1.00  0.00     0.000 A 
ATOM     35  C   UNL     1       8.688  -0.311  -0.466  1.00  0.00     0.000 A 
ENDBRANCH  24  27
ENDBRANCH  21  23
ENDBRANCH  12  18
TORSDOF 4
