REMARK SMILES Cc1ccc(C2CC2)c(C(=O)NC2Cc3ccccc3C2)n1
REMARK SMILES IDX 1 1 2 2 3 3 4 4 5 5 9 6 22 7 10 8 11 9 12 10 13 12 14 13
REMARK SMILES IDX 21 14 15 15 20 16 16 17 19 18 17 19 18 20 6 21 7 22 8 23
REMARK H PARENT 12 11
ROOT
ATOM      1  C   UNL     1      -3.674  -0.760  -2.682  1.00  0.00     0.067 C 
ATOM      2  C   UNL     1      -3.450  -0.475  -1.228  1.00  0.00     0.038 A 
ATOM      3  C   UNL     1      -4.513  -0.504  -0.338  1.00  0.00     0.024 A 
ATOM      4  C   UNL     1      -4.274  -0.230   1.009  1.00  0.00     0.008 A 
ATOM      5  C   UNL     1      -2.987   0.080   1.479  1.00  0.00    -0.013 A 
ATOM      6  C   UNL     1      -1.980   0.053   0.502  1.00  0.00     0.131 A 
ATOM      7  N   UNL     1      -2.189  -0.205  -0.832  1.00  0.00    -0.248 NA
ENDROOT
BRANCH   6   8
ATOM      8  C   UNL     1      -0.524   0.284   0.841  1.00  0.00     0.270 C 
ATOM      9  O   UNL     1      -0.086   0.308   1.984  1.00  0.00    -0.267 OA
ATOM     10  N   UNL     1       0.284   0.424  -0.274  1.00  0.00    -0.347 N 
ATOM     11  H   UNL     1      -0.172   0.190  -1.154  1.00  0.00     0.164 HD
BRANCH  10  12
ATOM     12  C   UNL     1       1.731   0.429  -0.181  1.00  0.00     0.091 C 
ATOM     13  C   UNL     1       2.322  -0.974   0.084  1.00  0.00     0.061 C 
ATOM     14  C   UNL     1       2.406   0.951  -1.467  1.00  0.00     0.061 C 
ATOM     15  C   UNL     1       3.667  -0.863  -0.564  1.00  0.00    -0.043 A 
ATOM     16  C   UNL     1       3.715   0.226  -1.440  1.00  0.00    -0.043 A 
ATOM     17  C   UNL     1       4.757  -1.703  -0.408  1.00  0.00     0.004 A 
ATOM     18  C   UNL     1       4.854   0.497  -2.180  1.00  0.00     0.004 A 
ATOM     19  C   UNL     1       5.914  -1.431  -1.141  1.00  0.00     0.000 A 
ATOM     20  C   UNL     1       5.962  -0.338  -2.021  1.00  0.00     0.000 A 
ENDBRANCH  10  12
ENDBRANCH   6   8
BRANCH   5  21
ATOM     21  C   UNL     1      -2.755   0.389   2.942  1.00  0.00     0.021 C 
ATOM     22  C   UNL     1      -3.739   1.217   3.741  1.00  0.00     0.009 C 
ATOM     23  C   UNL     1      -2.419   1.806   3.356  1.00  0.00     0.009 C 
ENDBRANCH   5  21
TORSDOF 3
