REMARK SMILES Cc1c(Cl)nnc2sc(C(=O)Nc3ccncc3Cl)c(N)c12
REMARK SMILES IDX 1 1 2 2 3 3 4 4 5 5 6 6 7 7 8 8 9 9 20 10 22 11 21 12 10 15
REMARK SMILES IDX 11 16 12 17 13 19 14 20 18 21 15 22 17 23 16 24 19 25
REMARK H PARENT 21 13 21 14 12 18
ROOT
ATOM      1  C   UNL     1      -4.744   1.204  -0.307  1.00  0.00     0.048 C 
ATOM      2  C   UNL     1      -4.083  -0.133  -0.468  1.00  0.00     0.001 A 
ATOM      3  C   UNL     1      -4.824  -1.298  -0.695  1.00  0.00     0.155 A 
ATOM      4  Cl  UNL     1      -6.548  -1.308  -0.761  1.00  0.00    -0.060 Cl
ATOM      5  N   UNL     1      -4.304  -2.533  -0.875  1.00  0.00    -0.137 NA
ATOM      6  N   UNL     1      -3.005  -2.709  -0.845  1.00  0.00    -0.138 NA
ATOM      7  C   UNL     1      -2.228  -1.640  -0.589  1.00  0.00     0.149 A 
ATOM      8  S   UNL     1      -0.543  -1.804  -0.523  1.00  0.00    -0.106 S 
ATOM      9  C   UNL     1      -0.326  -0.148  -0.143  1.00  0.00     0.118 A 
ATOM     10  C   UNL     1      -1.549   0.505  -0.076  1.00  0.00     0.065 A 
ATOM     11  C   UNL     1      -2.679  -0.345  -0.368  1.00  0.00     0.043 A 
ENDROOT
BRANCH  10  12
ATOM     12  N   UNL     1      -1.647   1.820   0.237  1.00  0.00    -0.397 N 
ATOM     13  H   UNL     1      -0.804   2.313   0.554  1.00  0.00     0.156 HD
ATOM     14  H   UNL     1      -2.479   2.202   0.675  1.00  0.00     0.156 HD
ENDBRANCH  10  12
BRANCH   9  15
ATOM     15  C   UNL     1       1.007   0.414   0.096  1.00  0.00     0.267 C 
ATOM     16  O   UNL     1       1.154   1.567   0.499  1.00  0.00    -0.268 OA
ATOM     17  N   UNL     1       2.060  -0.447  -0.164  1.00  0.00    -0.320 N 
ATOM     18  H   UNL     1       1.806  -1.375  -0.490  1.00  0.00     0.170 HD
BRANCH  17  19
ATOM     19  C   UNL     1       3.451  -0.213  -0.037  1.00  0.00     0.063 A 
ATOM     20  C   UNL     1       3.992   0.999   0.391  1.00  0.00     0.048 A 
ATOM     21  C   UNL     1       4.333  -1.255  -0.360  1.00  0.00     0.082 A 
ATOM     22  C   UNL     1       5.372   1.120   0.479  1.00  0.00     0.113 A 
ATOM     23  C   UNL     1       5.698  -1.037  -0.239  1.00  0.00     0.133 A 
ATOM     24  N   UNL     1       6.238   0.131   0.175  1.00  0.00    -0.263 NA
ATOM     25  Cl  UNL     1       3.765  -2.794  -0.900  1.00  0.00    -0.080 Cl
ENDBRANCH  17  19
ENDBRANCH   9  15
TORSDOF 3
