REMARK SMILES Cc1c(Cl)c2nncn2c2sc(NC(=O)c3cncc(C4Cc5ccccc5C4)c3)c(N)c12
REMARK SMILES IDX 1 1 2 2 3 3 4 4 5 5 6 6 7 7 8 8 9 9 10 10 11 11 12 12 31 13
REMARK SMILES IDX 33 14 32 15 13 18 14 19 15 20 16 22 17 23 30 24 18 25 20 26
REMARK SMILES IDX 19 27 21 28 22 29 29 30 23 31 28 32 24 33 27 34 25 35 26 36
REMARK H PARENT 32 16 32 17 13 21
ROOT
ATOM      1  C   UNL     1      -6.691   0.614   2.637  1.00  0.00     0.047 C 
ATOM      2  C   UNL     1      -6.481   0.730   1.153  1.00  0.00    -0.016 C 
ATOM      3  C   UNL     1      -7.478   1.046   0.282  1.00  0.00     0.089 C 
ATOM      4  Cl  UNL     1      -9.094   1.414   0.782  1.00  0.00    -0.080 Cl
ATOM      5  C   UNL     1      -7.234   1.083  -1.125  1.00  0.00     0.180 A 
ATOM      6  N   UNL     1      -7.996   1.353  -2.168  1.00  0.00    -0.129 NA
ATOM      7  N   UNL     1      -7.230   1.217  -3.305  1.00  0.00    -0.138 NA
ATOM      8  C   UNL     1      -6.019   0.868  -2.931  1.00  0.00     0.231 A 
ATOM      9  N   UNL     1      -5.962   0.771  -1.570  1.00  0.00    -0.271 N 
ATOM     10  C   UNL     1      -4.938   0.453  -0.698  1.00  0.00     0.114 A 
ATOM     11  S   UNL     1      -3.398   0.069  -1.219  1.00  0.00    -0.097 S 
ATOM     12  C   UNL     1      -2.878  -0.138   0.387  1.00  0.00     0.121 A 
ATOM     13  C   UNL     1      -3.885   0.137   1.308  1.00  0.00     0.077 A 
ATOM     14  C   UNL     1      -5.136   0.438   0.665  1.00  0.00     0.040 A 
ENDROOT
BRANCH  13  15
ATOM     15  N   UNL     1      -3.650   0.110   2.647  1.00  0.00    -0.396 N 
ATOM     16  H   UNL     1      -2.707   0.282   2.985  1.00  0.00     0.156 HD
ATOM     17  H   UNL     1      -4.308   0.547   3.284  1.00  0.00     0.156 HD
ENDBRANCH  13  15
BRANCH  12  18
ATOM     18  N   UNL     1      -1.597  -0.576   0.690  1.00  0.00    -0.312 N 
ATOM     19  C   UNL     1      -0.542  -0.711  -0.194  1.00  0.00     0.257 C 
ATOM     20  O   UNL     1      -0.494  -0.343  -1.361  1.00  0.00    -0.269 OA
ATOM     21  H   UNL     1      -1.447  -0.781   1.668  1.00  0.00     0.171 HD
BRANCH  19  22
ATOM     22  C   UNL     1       0.680  -1.319   0.384  1.00  0.00     0.058 A 
ATOM     23  C   UNL     1       0.622  -2.352   1.308  1.00  0.00     0.124 A 
ATOM     24  C   UNL     1       1.940  -0.876  -0.027  1.00  0.00     0.021 A 
ATOM     25  N   UNL     1       1.715  -2.920   1.869  1.00  0.00    -0.264 NA
ATOM     26  C   UNL     1       3.097  -1.449   0.516  1.00  0.00    -0.025 A 
ATOM     27  C   UNL     1       2.920  -2.459   1.460  1.00  0.00     0.115 A 
BRANCH  26  28
ATOM     28  C   UNL     1       4.482  -1.012   0.113  1.00  0.00     0.029 C 
ATOM     29  C   UNL     1       4.795   0.468   0.441  1.00  0.00     0.044 C 
ATOM     30  C   UNL     1       4.793  -1.195  -1.393  1.00  0.00     0.044 C 
ATOM     31  C   UNL     1       5.865   0.772  -0.562  1.00  0.00    -0.044 A 
ATOM     32  C   UNL     1       5.864  -0.168  -1.598  1.00  0.00    -0.044 A 
ATOM     33  C   UNL     1       6.748   1.839  -0.566  1.00  0.00     0.004 A 
ATOM     34  C   UNL     1       6.745  -0.060  -2.661  1.00  0.00     0.004 A 
ATOM     35  C   UNL     1       7.648   1.948  -1.628  1.00  0.00     0.000 A 
ATOM     36  C   UNL     1       7.647   1.005  -2.668  1.00  0.00     0.000 A 
ENDBRANCH  26  28
ENDBRANCH  19  22
ENDBRANCH  12  18
TORSDOF 4
