REMARK SMILES Cc1c(Cl)c2nncn2c2sc(C(=O)NC(=O)C3(F)CCCC3)c(N)c12
REMARK SMILES IDX 1 1 2 2 3 3 4 4 5 5 6 6 7 7 8 8 9 9 10 10 11 11 12 12 24 13
REMARK SMILES IDX 26 14 25 15 13 18 14 19 15 20 16 21 17 22 18 24 20 25 23 26
REMARK SMILES IDX 21 27 22 28 19 29
REMARK H PARENT 25 16 25 17 15 23
ROOT
ATOM      1  C   UNL     1      -5.215   1.974   0.667  1.00  0.00     0.047 C 
ATOM      2  C   UNL     1      -4.705   0.618   0.263  1.00  0.00    -0.016 C 
ATOM      3  C   UNL     1      -5.518  -0.450   0.039  1.00  0.00     0.089 C 
ATOM      4  Cl  UNL     1      -7.244  -0.370   0.146  1.00  0.00    -0.080 Cl
ATOM      5  C   UNL     1      -4.970  -1.725  -0.299  1.00  0.00     0.180 A 
ATOM      6  N   UNL     1      -5.508  -2.900  -0.564  1.00  0.00    -0.129 NA
ATOM      7  N   UNL     1      -4.490  -3.793  -0.811  1.00  0.00    -0.138 NA
ATOM      8  C   UNL     1      -3.354  -3.145  -0.691  1.00  0.00     0.231 A 
ATOM      9  N   UNL     1      -3.593  -1.839  -0.374  1.00  0.00    -0.271 N 
ATOM     10  C   UNL     1      -2.753  -0.762  -0.154  1.00  0.00     0.113 A 
ATOM     11  S   UNL     1      -1.088  -0.883  -0.232  1.00  0.00    -0.109 S 
ATOM     12  C   UNL     1      -0.917   0.795   0.124  1.00  0.00     0.118 A 
ATOM     13  C   UNL     1      -2.162   1.403   0.291  1.00  0.00     0.065 A 
ATOM     14  C   UNL     1      -3.255   0.483   0.148  1.00  0.00     0.038 A 
ENDROOT
BRANCH  13  15
ATOM     15  N   UNL     1      -2.267   2.723   0.569  1.00  0.00    -0.397 N 
ATOM     16  H   UNL     1      -1.417   3.300   0.539  1.00  0.00     0.156 HD
ATOM     17  H   UNL     1      -3.078   3.271   0.309  1.00  0.00     0.156 HD
ENDBRANCH  13  15
BRANCH  12  18
ATOM     18  C   UNL     1       0.404   1.429   0.200  1.00  0.00     0.270 C 
ATOM     19  O   UNL     1       0.530   2.647   0.307  1.00  0.00    -0.268 OA
ATOM     20  N   UNL     1       1.479   0.568   0.068  1.00  0.00    -0.289 N 
ATOM     21  C   UNL     1       2.768   0.836   0.506  1.00  0.00     0.264 C 
ATOM     22  O   UNL     1       3.216   1.936   0.805  1.00  0.00    -0.271 OA
ATOM     23  H   UNL     1       1.253  -0.417  -0.001  1.00  0.00     0.173 HD
BRANCH  21  24
ATOM     24  C   UNL     1       3.634  -0.424   0.449  1.00  0.00     0.189 C 
ATOM     25  C   UNL     1       4.730  -0.461   1.519  1.00  0.00     0.051 C 
ATOM     26  C   UNL     1       4.346  -0.525  -0.905  1.00  0.00     0.051 C 
ATOM     27  C   UNL     1       6.043  -0.343   0.756  1.00  0.00     0.004 C 
ATOM     28  C   UNL     1       5.745  -1.023  -0.568  1.00  0.00     0.004 C 
ATOM     29  F   UNL     1       2.853  -1.543   0.595  1.00  0.00    -0.233 F 
ENDBRANCH  21  24
ENDBRANCH  12  18
TORSDOF 3
