REMARK SMILES Cc1c(Cl)c2nncn2c2sc(-c3cc(C(=O)NC4CC4)c(Cl)cn3)c(N)c12
REMARK SMILES IDX 1 1 2 2 3 3 4 4 5 5 6 6 7 7 8 8 9 9 10 10 11 11 12 12 26 13
REMARK SMILES IDX 28 14 27 15 13 18 14 19 25 20 15 21 24 22 22 23 23 24 16 25
REMARK SMILES IDX 17 26 18 27 19 29 20 30 21 31
REMARK H PARENT 27 16 27 17 18 28
ROOT
ATOM      1  C   UNL     1      -5.630   0.921   0.581  1.00  0.00     0.047 C 
ATOM      2  C   UNL     1      -4.990   0.130  -0.527  1.00  0.00    -0.016 C 
ATOM      3  C   UNL     1      -5.701  -0.542  -1.473  1.00  0.00     0.089 C 
ATOM      4  Cl  UNL     1      -7.430  -0.520  -1.557  1.00  0.00    -0.080 Cl
ATOM      5  C   UNL     1      -5.034  -1.325  -2.464  1.00  0.00     0.180 A 
ATOM      6  N   UNL     1      -5.460  -2.056  -3.477  1.00  0.00    -0.129 NA
ATOM      7  N   UNL     1      -4.363  -2.612  -4.096  1.00  0.00    -0.138 NA
ATOM      8  C   UNL     1      -3.293  -2.208  -3.450  1.00  0.00     0.231 A 
ATOM      9  N   UNL     1      -3.653  -1.392  -2.416  1.00  0.00    -0.271 N 
ATOM     10  C   UNL     1      -2.917  -0.709  -1.465  1.00  0.00     0.113 A 
ATOM     11  S   UNL     1      -1.250  -0.777  -1.392  1.00  0.00    -0.113 S 
ATOM     12  C   UNL     1      -1.227   0.290  -0.033  1.00  0.00     0.078 A 
ATOM     13  C   UNL     1      -2.524   0.695   0.295  1.00  0.00     0.062 A 
ATOM     14  C   UNL     1      -3.532   0.077  -0.519  1.00  0.00     0.038 A 
ENDROOT
BRANCH  13  15
ATOM     15  N   UNL     1      -2.756   1.583   1.296  1.00  0.00    -0.397 N 
ATOM     16  H   UNL     1      -3.537   2.226   1.233  1.00  0.00     0.156 HD
ATOM     17  H   UNL     1      -1.929   2.080   1.646  1.00  0.00     0.156 HD
ENDBRANCH  13  15
BRANCH  12  18
ATOM     18  C   UNL     1       0.062   0.683   0.573  1.00  0.00     0.083 A 
ATOM     19  C   UNL     1       1.191  -0.128   0.580  1.00  0.00     0.045 A 
ATOM     20  N   UNL     1       0.066   1.913   1.148  1.00  0.00    -0.254 NA
ATOM     21  C   UNL     1       2.379   0.333   1.175  1.00  0.00     0.062 A 
ATOM     22  C   UNL     1       1.217   2.332   1.727  1.00  0.00     0.133 A 
ATOM     23  C   UNL     1       2.391   1.593   1.771  1.00  0.00     0.072 A 
ATOM     24  Cl  UNL     1       3.739   2.286   2.590  1.00  0.00    -0.082 Cl
BRANCH  21  25
ATOM     25  C   UNL     1       3.532  -0.609   1.124  1.00  0.00     0.253 C 
ATOM     26  O   UNL     1       3.312  -1.814   1.045  1.00  0.00    -0.269 OA
ATOM     27  N   UNL     1       4.802  -0.071   1.121  1.00  0.00    -0.349 N 
ATOM     28  H   UNL     1       4.925   0.929   1.236  1.00  0.00     0.164 HD
BRANCH  27  29
ATOM     29  C   UNL     1       5.975  -0.885   1.063  1.00  0.00     0.082 C 
ATOM     30  C   UNL     1       6.711  -1.064  -0.235  1.00  0.00     0.027 C 
ATOM     31  C   UNL     1       7.330  -0.262   0.872  1.00  0.00     0.027 C 
ENDBRANCH  27  29
ENDBRANCH  21  25
ENDBRANCH  12  18
TORSDOF 4
