REMARK SMILES COc1nc(C)ccc1NC(=O)C1Cc2ccccc2C1
REMARK SMILES IDX 3 1 4 2 5 3 6 4 7 5 8 6 9 7 2 8 1 9 10 10 11 11 12 12 13 14
REMARK SMILES IDX 14 15 21 16 15 17 20 18 16 19 19 20 17 21 18 22
REMARK H PARENT 10 13
ROOT
ATOM      1  C   UNL     1       1.864  -0.693  -0.309  1.00  0.00     0.237 A 
ATOM      2  N   UNL     1       3.103  -1.195  -0.519  1.00  0.00    -0.217 NA
ATOM      3  C   UNL     1       4.128  -0.314  -0.526  1.00  0.00     0.041 A 
ATOM      4  C   UNL     1       5.505  -0.860  -0.758  1.00  0.00     0.067 C 
ATOM      5  C   UNL     1       3.944   1.052  -0.329  1.00  0.00     0.026 A 
ATOM      6  C   UNL     1       2.656   1.544  -0.114  1.00  0.00     0.034 A 
ATOM      7  C   UNL     1       1.580   0.664  -0.100  1.00  0.00     0.104 A 
ENDROOT
BRANCH   1   8
ATOM      8  O   UNL     1       0.775  -1.555  -0.291  1.00  0.00    -0.480 OA
ATOM      9  C   UNL     1       1.137  -2.914  -0.509  1.00  0.00     0.280 C 
ENDBRANCH   1   8
BRANCH   7  10
ATOM     10  N   UNL     1       0.234   1.043   0.107  1.00  0.00    -0.321 N 
ATOM     11  C   UNL     1      -0.271   2.305   0.329  1.00  0.00     0.228 C 
ATOM     12  O   UNL     1       0.393   3.338   0.384  1.00  0.00    -0.274 OA
ATOM     13  H   UNL     1      -0.412   0.257   0.082  1.00  0.00     0.170 HD
BRANCH  11  14
ATOM     14  C   UNL     1      -1.789   2.372   0.516  1.00  0.00     0.087 C 
ATOM     15  C   UNL     1      -2.551   1.863  -0.722  1.00  0.00     0.049 C 
ATOM     16  C   UNL     1      -2.263   1.548   1.728  1.00  0.00     0.049 C 
ATOM     17  C   UNL     1      -2.969   0.490  -0.297  1.00  0.00    -0.044 A 
ATOM     18  C   UNL     1      -2.807   0.312   1.080  1.00  0.00    -0.044 A 
ATOM     19  C   UNL     1      -3.474  -0.525  -1.093  1.00  0.00     0.004 A 
ATOM     20  C   UNL     1      -3.146  -0.883   1.691  1.00  0.00     0.004 A 
ATOM     21  C   UNL     1      -3.810  -1.737  -0.488  1.00  0.00     0.000 A 
ATOM     22  C   UNL     1      -3.647  -1.915   0.895  1.00  0.00     0.000 A 
ENDBRANCH  11  14
ENDBRANCH   7  10
TORSDOF 3
