REMARK SMILES Cc1c(Cl)c2nnc(C)n2c2sc(C(=O)Nc3cnn(C4Cc5ccccc5C4)c3)c(N)c12
REMARK SMILES IDX 1 1 2 2 3 3 4 4 5 5 6 6 7 7 8 8 9 9 10 10 11 11 12 12 13 13
REMARK SMILES IDX 31 14 33 15 32 16 14 19 15 20 16 21 17 23 18 24 30 25 19 26
REMARK SMILES IDX 20 27 21 28 22 29 29 30 23 31 28 32 24 33 27 34 25 35 26 36
REMARK H PARENT 32 17 32 18 16 22
ROOT
ATOM      1  C   UNL     1      -6.110   3.207  -0.475  1.00  0.00     0.047 C 
ATOM      2  C   UNL     1      -6.167   1.751  -0.102  1.00  0.00    -0.016 C 
ATOM      3  C   UNL     1      -7.330   1.072   0.068  1.00  0.00     0.089 C 
ATOM      4  Cl  UNL     1      -8.890   1.814  -0.066  1.00  0.00    -0.080 Cl
ATOM      5  C   UNL     1      -7.324  -0.323   0.365  1.00  0.00     0.181 A 
ATOM      6  N   UNL     1      -8.299  -1.184   0.575  1.00  0.00    -0.129 NA
ATOM      7  N   UNL     1      -7.742  -2.412   0.800  1.00  0.00    -0.135 NA
ATOM      8  C   UNL     1      -6.431  -2.298   0.729  1.00  0.00     0.135 A 
ATOM      9  C   UNL     1      -5.490  -3.424   0.920  1.00  0.00     0.090 C 
ATOM     10  N   UNL     1      -6.102  -0.980   0.457  1.00  0.00    -0.268 N 
ATOM     11  C   UNL     1      -4.904  -0.290   0.289  1.00  0.00     0.113 A 
ATOM     12  S   UNL     1      -3.395  -1.010   0.373  1.00  0.00    -0.109 S 
ATOM     13  C   UNL     1      -2.602   0.489   0.100  1.00  0.00     0.118 A 
ATOM     14  C   UNL     1      -3.525   1.521  -0.045  1.00  0.00     0.065 A 
ATOM     15  C   UNL     1      -4.886   1.067   0.034  1.00  0.00     0.038 A 
ENDROOT
BRANCH  14  16
ATOM     16  N   UNL     1      -3.126   2.799  -0.248  1.00  0.00    -0.397 N 
ATOM     17  H   UNL     1      -2.123   3.009  -0.173  1.00  0.00     0.156 HD
ATOM     18  H   UNL     1      -3.674   3.588   0.077  1.00  0.00     0.156 HD
ENDBRANCH  14  16
BRANCH  13  19
ATOM     19  C   UNL     1      -1.137   0.587   0.073  1.00  0.00     0.268 C 
ATOM     20  O   UNL     1      -0.567   1.677   0.026  1.00  0.00    -0.268 OA
ATOM     21  N   UNL     1      -0.470  -0.629   0.105  1.00  0.00    -0.319 N 
ATOM     22  H   UNL     1      -1.034  -1.468   0.139  1.00  0.00     0.170 HD
BRANCH  21  23
ATOM     23  C   UNL     1       0.900  -0.805   0.091  1.00  0.00     0.079 A 
ATOM     24  C   UNL     1       1.595  -2.034   0.122  1.00  0.00     0.161 A 
ATOM     25  C   UNL     1       1.895   0.141   0.045  1.00  0.00     0.135 A 
ATOM     26  N   UNL     1       2.920  -1.878   0.098  1.00  0.00    -0.179 NA
ATOM     27  N   UNL     1       3.081  -0.540   0.050  1.00  0.00    -0.267 N 
BRANCH  27  28
ATOM     28  C   UNL     1       4.405   0.043   0.010  1.00  0.00     0.116 C 
ATOM     29  C   UNL     1       5.230  -0.369  -1.227  1.00  0.00     0.063 C 
ATOM     30  C   UNL     1       5.271  -0.287   1.243  1.00  0.00     0.063 C 
ATOM     31  C   UNL     1       6.626  -0.161  -0.720  1.00  0.00    -0.043 A 
ATOM     32  C   UNL     1       6.649  -0.115   0.679  1.00  0.00    -0.043 A 
ATOM     33  C   UNL     1       7.794  -0.064  -1.458  1.00  0.00     0.004 A 
ATOM     34  C   UNL     1       7.840   0.030   1.370  1.00  0.00     0.004 A 
ATOM     35  C   UNL     1       8.998   0.095  -0.770  1.00  0.00     0.000 A 
ATOM     36  C   UNL     1       9.021   0.141   0.634  1.00  0.00     0.000 A 
ENDBRANCH  27  28
ENDBRANCH  21  23
ENDBRANCH  13  19
TORSDOF 4
