REMARK SMILES COc1cc2ccc(NC(=O)C3(F)CCCC3)cc2nn1
REMARK SMILES IDX 3 1 4 2 5 3 6 4 7 5 8 6 18 7 19 8 20 9 21 10 2 11 1 12 9 13
REMARK SMILES IDX 10 14 11 15 12 17 14 18 17 19 15 20 16 21 13 22
REMARK H PARENT 9 16
ROOT
ATOM      1  C   UNL     1       5.001  -0.035   0.041  1.00  0.00     0.233 A 
ATOM      2  C   UNL     1       4.222  -1.168  -0.061  1.00  0.00     0.080 A 
ATOM      3  C   UNL     1       2.831  -1.022  -0.069  1.00  0.00     0.008 A 
ATOM      4  C   UNL     1       1.973  -2.127  -0.171  1.00  0.00     0.013 A 
ATOM      5  C   UNL     1       0.586  -1.950  -0.177  1.00  0.00     0.027 A 
ATOM      6  C   UNL     1       0.042  -0.671  -0.082  1.00  0.00     0.043 A 
ATOM      7  C   UNL     1       0.911   0.424   0.019  1.00  0.00     0.057 A 
ATOM      8  C   UNL     1       2.294   0.271   0.027  1.00  0.00     0.095 A 
ATOM      9  N   UNL     1       3.099   1.342   0.125  1.00  0.00    -0.147 NA
ATOM     10  N   UNL     1       4.463   1.196   0.133  1.00  0.00    -0.112 NA
ENDROOT
BRANCH   1  11
ATOM     11  O   UNL     1       6.369  -0.215   0.047  1.00  0.00    -0.480 OA
ATOM     12  C   UNL     1       7.089   1.010   0.156  1.00  0.00     0.280 C 
ENDBRANCH   1  11
BRANCH   6  13
ATOM     13  N   UNL     1      -1.343  -0.395  -0.079  1.00  0.00    -0.323 N 
ATOM     14  C   UNL     1      -2.391  -1.307  -0.165  1.00  0.00     0.262 C 
ATOM     15  O   UNL     1      -2.257  -2.524  -0.261  1.00  0.00    -0.271 OA
ATOM     16  H   UNL     1      -1.589   0.584  -0.002  1.00  0.00     0.170 HD
BRANCH  14  17
ATOM     17  C   UNL     1      -3.792  -0.662  -0.141  1.00  0.00     0.189 C 
ATOM     18  C   UNL     1      -4.032   0.259  -1.344  1.00  0.00     0.051 C 
ATOM     19  C   UNL     1      -4.031   0.202   1.109  1.00  0.00     0.051 C 
ATOM     20  C   UNL     1      -4.895   1.383  -0.791  1.00  0.00     0.004 C 
ATOM     21  C   UNL     1      -4.314   1.609   0.593  1.00  0.00     0.004 C 
ATOM     22  F   UNL     1      -4.784  -1.609  -0.158  1.00  0.00    -0.233 F 
ENDBRANCH  14  17
ENDBRANCH   6  13
TORSDOF 3
