REMARK SMILES Cc1ccc(C(=O)NC2CC2)c(-c2sc3c(c(C)c(Cl)c4nnc(C)n43)c2N)n1
REMARK SMILES IDX 13 1 14 2 15 3 16 4 17 5 18 6 19 7 20 8 21 9 22 10 23 11
REMARK SMILES IDX 24 12 25 13 26 14 27 15 12 16 2 17 3 18 29 19 4 20 5 21 1 22
REMARK SMILES IDX 6 23 7 24 8 25 9 27 10 28 11 29 28 30
REMARK H PARENT 8 26 28 31 28 32
ROOT
ATOM      1  C   UNL     1       0.335  -0.855  -0.383  1.00  0.00     0.079 A 
ATOM      2  S   UNL     1      -0.266  -0.091  -1.793  1.00  0.00    -0.113 S 
ATOM      3  C   UNL     1      -1.781   0.089  -1.100  1.00  0.00     0.113 A 
ATOM      4  C   UNL     1      -1.898  -0.409   0.184  1.00  0.00     0.038 A 
ATOM      5  C   UNL     1      -3.179  -0.250   0.860  1.00  0.00    -0.016 C 
ATOM      6  C   UNL     1      -3.245  -0.718   2.288  1.00  0.00     0.047 C 
ATOM      7  C   UNL     1      -4.227   0.327   0.219  1.00  0.00     0.089 C 
ATOM      8  Cl  UNL     1      -5.784   0.543   0.950  1.00  0.00    -0.080 Cl
ATOM      9  C   UNL     1      -4.093   0.803  -1.119  1.00  0.00     0.181 A 
ATOM     10  N   UNL     1      -4.947   1.381  -1.938  1.00  0.00    -0.129 NA
ATOM     11  N   UNL     1      -4.295   1.660  -3.107  1.00  0.00    -0.135 NA
ATOM     12  C   UNL     1      -3.046   1.249  -2.999  1.00  0.00     0.135 A 
ATOM     13  C   UNL     1      -2.032   1.384  -4.070  1.00  0.00     0.090 C 
ATOM     14  N   UNL     1      -2.859   0.686  -1.748  1.00  0.00    -0.268 N 
ATOM     15  C   UNL     1      -0.655  -1.014   0.578  1.00  0.00     0.062 A 
ENDROOT
BRANCH   1  16
ATOM     16  C   UNL     1       1.743  -1.250  -0.339  1.00  0.00     0.095 A 
ATOM     17  C   UNL     1       3.191  -3.066  -0.475  1.00  0.00     0.038 A 
ATOM     18  C   UNL     1       4.301  -2.230  -0.399  1.00  0.00     0.024 A 
ATOM     19  N   UNL     1       1.921  -2.597  -0.436  1.00  0.00    -0.251 NA
ATOM     20  C   UNL     1       4.101  -0.858  -0.261  1.00  0.00     0.018 A 
ATOM     21  C   UNL     1       2.800  -0.353  -0.206  1.00  0.00     0.067 A 
ATOM     22  C   UNL     1       3.373  -4.547  -0.624  1.00  0.00     0.067 C 
BRANCH  21  23
ATOM     23  C   UNL     1       2.626   1.103  -0.024  1.00  0.00     0.253 C 
ATOM     24  O   UNL     1       3.322   1.873  -0.677  1.00  0.00    -0.269 OA
ATOM     25  N   UNL     1       1.706   1.495   0.930  1.00  0.00    -0.349 N 
ATOM     26  H   UNL     1       1.228   0.793   1.487  1.00  0.00     0.164 HD
BRANCH  25  27
ATOM     27  C   UNL     1       1.413   2.867   1.201  1.00  0.00     0.082 C 
ATOM     28  C   UNL     1       1.465   3.392   2.609  1.00  0.00     0.027 C 
ATOM     29  C   UNL     1       0.142   3.242   1.914  1.00  0.00     0.027 C 
ENDBRANCH  25  27
ENDBRANCH  21  23
ENDBRANCH   1  16
BRANCH  15  30
ATOM     30  N   UNL     1      -0.398  -1.656   1.748  1.00  0.00    -0.397 N 
ATOM     31  H   UNL     1       0.401  -2.296   1.751  1.00  0.00     0.156 HD
ATOM     32  H   UNL     1      -1.162  -2.104   2.245  1.00  0.00     0.156 HD
ENDBRANCH  15  30
TORSDOF 4
