REMARK SMILES Cc1c(Cl)c2nncn2c2sc(N3CC(NC(=O)C4(F)CCCC4)C3)c(N)c12
REMARK SMILES IDX 13 1 14 2 15 3 25 4 12 5 2 6 3 7 28 8 5 9 26 10 10 11 6 12
REMARK SMILES IDX 9 13 11 14 7 15 8 16 1 17 4 18 27 19 16 22 17 23 18 24 19 26
REMARK SMILES IDX 21 27 24 28 22 29 23 30 20 31
REMARK H PARENT 27 20 27 21 16 25
ROOT
ATOM      1  N   UNL     1      -0.484  -0.714   0.625  1.00  0.00    -0.357 N 
ATOM      2  C   UNL     1       0.089  -1.535  -0.422  1.00  0.00     0.144 C 
ATOM      3  C   UNL     1       1.217  -1.876   0.571  1.00  0.00     0.121 C 
ATOM      4  C   UNL     1       0.186  -1.488   1.646  1.00  0.00     0.144 C 
ENDROOT
BRANCH   1   5
ATOM      5  C   UNL     1      -1.795  -0.315   0.662  1.00  0.00     0.117 A 
ATOM      6  C   UNL     1      -5.100   0.925  -0.753  1.00  0.00    -0.016 C 
ATOM      7  C   UNL     1      -6.284   1.125  -0.113  1.00  0.00     0.089 C 
ATOM      8  C   UNL     1      -3.927   0.464  -0.016  1.00  0.00     0.040 A 
ATOM      9  C   UNL     1      -6.407   0.869   1.286  1.00  0.00     0.180 A 
ATOM     10  C   UNL     1      -2.556   0.235  -0.377  1.00  0.00     0.076 A 
ATOM     11  C   UNL     1      -4.083   0.193   1.323  1.00  0.00     0.114 A 
ATOM     12  N   UNL     1      -7.406   0.976   2.142  1.00  0.00    -0.129 NA
ATOM     13  N   UNL     1      -5.294   0.394   1.958  1.00  0.00    -0.271 N 
ATOM     14  S   UNL     1      -2.728  -0.367   2.120  1.00  0.00    -0.097 S 
ATOM     15  N   UNL     1      -6.958   0.569   3.379  1.00  0.00    -0.138 NA
ATOM     16  C   UNL     1      -5.697   0.224   3.252  1.00  0.00     0.231 A 
ATOM     17  C   UNL     1      -4.925   1.100  -2.237  1.00  0.00     0.047 C 
ATOM     18  Cl  UNL     1      -7.715   1.679  -0.914  1.00  0.00    -0.080 Cl
BRANCH  10  19
ATOM     19  N   UNL     1      -2.007   0.525  -1.586  1.00  0.00    -0.396 N 
ATOM     20  H   UNL     1      -0.991   0.579  -1.624  1.00  0.00     0.156 HD
ATOM     21  H   UNL     1      -2.404   1.264  -2.156  1.00  0.00     0.156 HD
ENDBRANCH  10  19
ENDBRANCH   1   5
BRANCH   3  22
ATOM     22  N   UNL     1       2.403  -0.980   0.498  1.00  0.00    -0.347 N 
ATOM     23  C   UNL     1       3.367  -1.142  -0.482  1.00  0.00     0.258 C 
ATOM     24  O   UNL     1       3.375  -2.094  -1.256  1.00  0.00    -0.271 OA
ATOM     25  H   UNL     1       2.342  -0.048   0.902  1.00  0.00     0.164 HD
BRANCH  23  26
ATOM     26  C   UNL     1       4.442  -0.055  -0.443  1.00  0.00     0.188 C 
ATOM     27  C   UNL     1       5.479  -0.333   0.654  1.00  0.00     0.051 C 
ATOM     28  C   UNL     1       5.243   0.069  -1.734  1.00  0.00     0.051 C 
ATOM     29  C   UNL     1       6.845  -0.046   0.026  1.00  0.00     0.004 C 
ATOM     30  C   UNL     1       6.547   0.696  -1.267  1.00  0.00     0.004 C 
ATOM     31  F   UNL     1       3.884   1.169  -0.171  1.00  0.00    -0.233 F 
ENDBRANCH  23  26
ENDBRANCH   3  22
TORSDOF 4
