REMARK SMILES Cc1c(Cl)c2nnc(C)n2c2sc(C(=O)NC3C[NH+](C4CC4)C3)c(N)c12
REMARK SMILES IDX 1 1 2 2 3 3 4 4 5 5 6 6 7 7 8 8 9 9 10 10 11 11 12 12 13 13
REMARK SMILES IDX 24 14 26 15 25 16 14 19 15 20 16 21 17 23 18 24 23 25 19 26
REMARK SMILES IDX 20 28 21 29 22 30
REMARK H PARENT 25 17 25 18 16 22 19 27
ROOT
ATOM      1  C   UNL     1      -4.723   2.454   2.007  1.00  0.00     0.047 C 
ATOM      2  C   UNL     1      -4.643   1.487   0.858  1.00  0.00    -0.016 C 
ATOM      3  C   UNL     1      -5.735   1.068   0.168  1.00  0.00     0.089 C 
ATOM      4  Cl  UNL     1      -7.351   1.554   0.559  1.00  0.00    -0.080 Cl
ATOM      5  C   UNL     1      -5.600   0.190  -0.948  1.00  0.00     0.181 A 
ATOM      6  N   UNL     1      -6.487  -0.349  -1.757  1.00  0.00    -0.129 NA
ATOM      7  N   UNL     1      -5.820  -1.105  -2.680  1.00  0.00    -0.135 NA
ATOM      8  C   UNL     1      -4.528  -1.026  -2.432  1.00  0.00     0.135 A 
ATOM      9  C   UNL     1      -3.491  -1.715  -3.231  1.00  0.00     0.090 C 
ATOM     10  N   UNL     1      -4.326  -0.214  -1.328  1.00  0.00    -0.268 N 
ATOM     11  C   UNL     1      -3.200   0.205  -0.621  1.00  0.00     0.113 A 
ATOM     12  S   UNL     1      -1.635  -0.234  -1.020  1.00  0.00    -0.109 S 
ATOM     13  C   UNL     1      -0.991   0.648   0.304  1.00  0.00     0.118 A 
ATOM     14  C   UNL     1      -2.002   1.262   1.037  1.00  0.00     0.065 A 
ATOM     15  C   UNL     1      -3.309   1.030   0.481  1.00  0.00     0.038 A 
ENDROOT
BRANCH  14  16
ATOM     16  N   UNL     1      -1.723   1.995   2.138  1.00  0.00    -0.397 N 
ATOM     17  H   UNL     1      -2.409   2.213   2.852  1.00  0.00     0.156 HD
ATOM     18  H   UNL     1      -0.774   2.018   2.519  1.00  0.00     0.156 HD
ENDBRANCH  14  16
BRANCH  13  19
ATOM     19  C   UNL     1       0.444   0.674   0.563  1.00  0.00     0.264 C 
ATOM     20  O   UNL     1       0.958   1.176   1.563  1.00  0.00    -0.268 OA
ATOM     21  N   UNL     1       1.266   0.086  -0.391  1.00  0.00    -0.338 N 
ATOM     22  H   UNL     1       0.798  -0.204  -1.246  1.00  0.00     0.164 HD
BRANCH  21  23
ATOM     23  C   UNL     1       2.745   0.211  -0.320  1.00  0.00     0.192 C 
ATOM     24  C   UNL     1       3.412  -0.058   1.054  1.00  0.00     0.293 C 
ATOM     25  C   UNL     1       3.549  -1.016  -0.800  1.00  0.00     0.293 C 
ATOM     26  N   UNL     1       4.450  -0.870   0.366  1.00  0.00    -0.329 N 
ATOM     27  H   UNL     1       4.608  -1.765   0.851  1.00  0.00     0.348 HD
BRANCH  26  28
ATOM     28  C   UNL     1       5.728  -0.180   0.114  1.00  0.00     0.184 C 
ATOM     29  C   UNL     1       6.810  -0.375   1.135  1.00  0.00     0.071 C 
ATOM     30  C   UNL     1       6.909  -1.050  -0.204  1.00  0.00     0.071 C 
ENDBRANCH  26  28
ENDBRANCH  21  23
ENDBRANCH  13  19
TORSDOF 4
