REMARK SMILES Cc1c(Cl)c2nncn2c2sc(C(=O)NC3CN(c4ccc(F)c(F)c4)C3)c(N)c12
REMARK SMILES IDX 13 1 14 2 15 3 12 5 2 6 3 7 30 8 5 9 28 10 10 11 6 12 9 13
REMARK SMILES IDX 11 14 7 15 8 16 1 17 4 18 29 19 16 22 17 23 27 24 18 25
REMARK SMILES IDX 19 26 20 27 26 28 21 29 24 30 22 31 25 32 23 33
REMARK H PARENT 15 4 29 20 29 21
ROOT
ATOM      1  C   UNL     1      -0.469  -1.693   0.003  1.00  0.00     0.263 C 
ATOM      2  O   UNL     1      -0.453  -2.718  -0.679  1.00  0.00    -0.268 OA
ATOM      3  N   UNL     1       0.675  -1.255   0.643  1.00  0.00    -0.345 N 
ATOM      4  H   UNL     1       0.637  -0.343   1.082  1.00  0.00     0.164 HD
ENDROOT
BRANCH   1   5
ATOM      5  C   UNL     1      -1.664  -0.869   0.176  1.00  0.00     0.118 A 
ATOM      6  C   UNL     1      -5.328   0.061  -0.131  1.00  0.00    -0.016 C 
ATOM      7  C   UNL     1      -5.959   1.192   0.285  1.00  0.00     0.089 C 
ATOM      8  C   UNL     1      -3.891  -0.104   0.071  1.00  0.00     0.038 A 
ATOM      9  C   UNL     1      -5.232   2.233   0.940  1.00  0.00     0.180 A 
ATOM     10  C   UNL     1      -2.956  -1.139  -0.271  1.00  0.00     0.065 A 
ATOM     11  C   UNL     1      -3.221   0.903   0.727  1.00  0.00     0.113 A 
ATOM     12  N   UNL     1      -5.579   3.407   1.433  1.00  0.00    -0.129 NA
ATOM     13  N   UNL     1      -3.878   2.045   1.148  1.00  0.00    -0.271 N 
ATOM     14  S   UNL     1      -1.587   0.654   0.978  1.00  0.00    -0.109 S 
ATOM     15  N   UNL     1      -4.456   3.995   1.970  1.00  0.00    -0.138 NA
ATOM     16  C   UNL     1      -3.450   3.170   1.794  1.00  0.00     0.231 A 
ATOM     17  C   UNL     1      -6.043  -1.092  -0.780  1.00  0.00     0.047 C 
ATOM     18  Cl  UNL     1      -7.655   1.467   0.075  1.00  0.00    -0.080 Cl
BRANCH  10  19
ATOM     19  N   UNL     1      -3.245  -2.277  -0.945  1.00  0.00    -0.397 N 
ATOM     20  H   UNL     1      -2.470  -2.888  -1.226  1.00  0.00     0.156 HD
ATOM     21  H   UNL     1      -4.004  -2.332  -1.614  1.00  0.00     0.156 HD
ENDBRANCH  10  19
ENDBRANCH   1   5
BRANCH   3  22
ATOM     22  C   UNL     1       1.989  -1.919   0.447  1.00  0.00     0.121 C 
ATOM     23  C   UNL     1       2.759  -1.451  -0.804  1.00  0.00     0.143 C 
ATOM     24  C   UNL     1       3.154  -1.281   1.230  1.00  0.00     0.143 C 
ATOM     25  N   UNL     1       3.420  -0.500   0.052  1.00  0.00    -0.367 N 
BRANCH  25  26
ATOM     26  C   UNL     1       4.590   0.232  -0.237  1.00  0.00     0.040 A 
ATOM     27  C   UNL     1       4.942   0.529  -1.564  1.00  0.00     0.029 A 
ATOM     28  C   UNL     1       5.411   0.710   0.793  1.00  0.00     0.068 A 
ATOM     29  C   UNL     1       6.093   1.266  -1.858  1.00  0.00     0.044 A 
ATOM     30  C   UNL     1       6.557   1.444   0.496  1.00  0.00     0.160 A 
ATOM     31  C   UNL     1       6.898   1.719  -0.821  1.00  0.00     0.158 A 
ATOM     32  F   UNL     1       7.329   1.887   1.498  1.00  0.00    -0.204 F 
ATOM     33  F   UNL     1       8.000   2.426  -1.103  1.00  0.00    -0.204 F 
ENDBRANCH  25  26
ENDBRANCH   3  22
TORSDOF 4
