REMARK SMILES Cc1ccc(NC(=O)c2sc3c(c(C)c(Cl)c4nncn43)c2N)c(C2Cc3ccccc3C2)n1
REMARK SMILES IDX 9 1 10 2 11 3 12 4 13 5 14 6 15 7 16 8 17 9 18 10 19 11
REMARK SMILES IDX 20 12 21 13 22 14 7 15 6 16 8 17 5 19 2 20 3 21 34 22 4 23
REMARK SMILES IDX 24 24 1 25 25 26 26 27 33 28 27 29 32 30 28 31 31 32 29 33
REMARK SMILES IDX 30 34 23 35
REMARK H PARENT 6 18 23 36 23 37
ROOT
ATOM      1  C   UNL     1       2.417  -0.923   0.261  1.00  0.00     0.118 A 
ATOM      2  S   UNL     1       2.235   0.784   0.100  1.00  0.00    -0.109 S 
ATOM      3  C   UNL     1       3.876   1.013   0.327  1.00  0.00     0.113 A 
ATOM      4  C   UNL     1       4.624  -0.128   0.511  1.00  0.00     0.038 A 
ATOM      5  C   UNL     1       6.067   0.030   0.671  1.00  0.00    -0.016 C 
ATOM      6  C   UNL     1       6.863  -1.241   0.791  1.00  0.00     0.047 C 
ATOM      7  C   UNL     1       6.631   1.268   0.677  1.00  0.00     0.089 C 
ATOM      8  Cl  UNL     1       8.330   1.538   0.871  1.00  0.00    -0.080 Cl
ATOM      9  C   UNL     1       5.826   2.435   0.511  1.00  0.00     0.180 A 
ATOM     10  N   UNL     1       6.099   3.726   0.478  1.00  0.00    -0.129 NA
ATOM     11  N   UNL     1       4.921   4.409   0.273  1.00  0.00    -0.138 NA
ATOM     12  C   UNL     1       3.956   3.523   0.185  1.00  0.00     0.231 A 
ATOM     13  N   UNL     1       4.465   2.264   0.330  1.00  0.00    -0.271 N 
ATOM     14  C   UNL     1       3.749  -1.266   0.495  1.00  0.00     0.065 A 
ENDROOT
BRANCH   1  15
ATOM     15  C   UNL     1       1.258  -1.825   0.184  1.00  0.00     0.268 C 
ATOM     16  N   UNL     1       0.076  -1.213  -0.207  1.00  0.00    -0.320 N 
ATOM     17  O   UNL     1       1.363  -3.020   0.450  1.00  0.00    -0.268 OA
ATOM     18  H   UNL     1       0.164  -0.226  -0.400  1.00  0.00     0.170 HD
BRANCH  16  19
ATOM     19  C   UNL     1      -1.212  -1.784  -0.361  1.00  0.00     0.063 A 
ATOM     20  C   UNL     1      -3.773  -2.799  -0.664  1.00  0.00     0.038 A 
ATOM     21  C   UNL     1      -2.757  -3.648  -0.262  1.00  0.00     0.025 A 
ATOM     22  N   UNL     1      -3.557  -1.492  -0.920  1.00  0.00    -0.256 NA
ATOM     23  C   UNL     1      -1.471  -3.133  -0.111  1.00  0.00     0.030 A 
ATOM     24  C   UNL     1      -2.302  -0.987  -0.774  1.00  0.00     0.068 A 
ATOM     25  C   UNL     1      -5.171  -3.312  -0.830  1.00  0.00     0.067 C 
BRANCH  24  26
ATOM     26  C   UNL     1      -2.147   0.506  -1.061  1.00  0.00     0.049 C 
ATOM     27  C   UNL     1      -2.039   1.321   0.253  1.00  0.00     0.046 C 
ATOM     28  C   UNL     1      -3.318   1.144  -1.856  1.00  0.00     0.046 C 
ATOM     29  C   UNL     1      -3.417   1.881   0.412  1.00  0.00    -0.044 A 
ATOM     30  C   UNL     1      -4.141   1.778  -0.777  1.00  0.00    -0.044 A 
ATOM     31  C   UNL     1      -3.969   2.476   1.535  1.00  0.00     0.004 A 
ATOM     32  C   UNL     1      -5.433   2.267  -0.872  1.00  0.00     0.004 A 
ATOM     33  C   UNL     1      -5.275   2.963   1.453  1.00  0.00     0.000 A 
ATOM     34  C   UNL     1      -6.002   2.859   0.258  1.00  0.00     0.000 A 
ENDBRANCH  24  26
ENDBRANCH  16  19
ENDBRANCH   1  15
BRANCH  14  35
ATOM     35  N   UNL     1       4.124  -2.555   0.671  1.00  0.00    -0.397 N 
ATOM     36  H   UNL     1       3.389  -3.268   0.753  1.00  0.00     0.156 HD
ATOM     37  H   UNL     1       4.929  -2.810   1.231  1.00  0.00     0.156 HD
ENDBRANCH  14  35
TORSDOF 4
