REMARK SMILES Cc1ccc(C2CC2)c(C(=O)Nc2sc3c(c(C)c(Cl)c4nncn43)c2N)n1
REMARK SMILES IDX 13 1 14 2 15 3 16 4 17 5 18 6 19 7 20 8 21 9 22 10 23 11
REMARK SMILES IDX 24 12 25 13 26 14 12 15 10 16 11 17 9 19 2 20 3 21 28 22
REMARK SMILES IDX 4 23 5 24 1 25 6 26 7 27 8 28 27 29
REMARK H PARENT 12 18 27 30 27 31
ROOT
ATOM      1  C   UNL     1       1.087  -0.021   0.292  1.00  0.00     0.121 A 
ATOM      2  S   UNL     1       2.050  -0.894  -0.806  1.00  0.00    -0.097 S 
ATOM      3  C   UNL     1       3.429  -0.502   0.051  1.00  0.00     0.114 A 
ATOM      4  C   UNL     1       3.242   0.279   1.171  1.00  0.00     0.040 A 
ATOM      5  C   UNL     1       4.421   0.611   1.965  1.00  0.00    -0.016 C 
ATOM      6  C   UNL     1       4.174   1.385   3.229  1.00  0.00     0.047 C 
ATOM      7  C   UNL     1       5.656   0.193   1.575  1.00  0.00     0.089 C 
ATOM      8  Cl  UNL     1       7.103   0.554   2.455  1.00  0.00    -0.080 Cl
ATOM      9  C   UNL     1       5.822  -0.591   0.392  1.00  0.00     0.180 A 
ATOM     10  N   UNL     1       6.875  -1.114  -0.206  1.00  0.00    -0.129 NA
ATOM     11  N   UNL     1       6.440  -1.797  -1.321  1.00  0.00    -0.138 NA
ATOM     12  C   UNL     1       5.133  -1.676  -1.378  1.00  0.00     0.231 A 
ATOM     13  N   UNL     1       4.689  -0.924  -0.328  1.00  0.00    -0.271 N 
ATOM     14  C   UNL     1       1.845   0.601   1.280  1.00  0.00     0.077 A 
ENDROOT
BRANCH   1  15
ATOM     15  N   UNL     1      -0.288   0.031   0.165  1.00  0.00    -0.310 N 
ATOM     16  C   UNL     1      -1.086  -0.554  -0.803  1.00  0.00     0.275 C 
ATOM     17  O   UNL     1      -0.711  -1.228  -1.752  1.00  0.00    -0.267 OA
ATOM     18  H   UNL     1      -0.806   0.509   0.897  1.00  0.00     0.171 HD
BRANCH  16  19
ATOM     19  C   UNL     1      -2.556  -0.274  -0.551  1.00  0.00     0.132 A 
ATOM     20  C   UNL     1      -4.056   0.650   0.980  1.00  0.00     0.038 A 
ATOM     21  C   UNL     1      -5.127   0.258   0.194  1.00  0.00     0.024 A 
ATOM     22  N   UNL     1      -2.777   0.397   0.632  1.00  0.00    -0.248 NA
ATOM     23  C   UNL     1      -4.875  -0.407  -1.006  1.00  0.00     0.008 A 
ATOM     24  C   UNL     1      -3.566  -0.683  -1.436  1.00  0.00    -0.013 A 
ATOM     25  C   UNL     1      -4.293   1.370   2.274  1.00  0.00     0.067 C 
BRANCH  24  26
ATOM     26  C   UNL     1      -3.325  -1.396  -2.750  1.00  0.00     0.021 C 
ATOM     27  C   UNL     1      -2.762  -0.620  -3.921  1.00  0.00     0.009 C 
ATOM     28  C   UNL     1      -4.172  -1.115  -3.973  1.00  0.00     0.009 C 
ENDBRANCH  24  26
ENDBRANCH  16  19
ENDBRANCH   1  15
BRANCH  14  29
ATOM     29  N   UNL     1       1.279   1.411   2.212  1.00  0.00    -0.396 N 
ATOM     30  H   UNL     1       1.840   2.094   2.707  1.00  0.00     0.156 HD
ATOM     31  H   UNL     1       0.346   1.782   2.052  1.00  0.00     0.156 HD
ENDBRANCH  14  29
TORSDOF 4
