REMARK SMILES COc1cc(NC(=O)c2sc3nnc(Cl)c(C)c3c2N)c(Cl)cn1
REMARK SMILES IDX 6 1 7 2 8 3 5 5 3 6 4 7 24 8 23 9 21 10 22 11 2 12 1 13 9 14
REMARK SMILES IDX 10 15 19 16 11 17 18 18 12 19 16 20 13 21 14 22 17 23 15 24
REMARK SMILES IDX 20 25
REMARK H PARENT 6 4 20 26 20 27
ROOT
ATOM      1  N   UNL     1       1.041  -0.946   0.161  1.00  0.00    -0.320 N 
ATOM      2  C   UNL     1       0.175   0.126   0.030  1.00  0.00     0.267 C 
ATOM      3  O   UNL     1       0.541   1.300   0.025  1.00  0.00    -0.268 OA
ATOM      4  H   UNL     1       0.613  -1.868   0.149  1.00  0.00     0.170 HD
ENDROOT
BRANCH   1   5
ATOM      5  C   UNL     1       2.450  -0.938   0.311  1.00  0.00     0.067 A 
ATOM      6  C   UNL     1       4.592   0.119   0.504  1.00  0.00     0.215 A 
ATOM      7  C   UNL     1       3.215   0.227   0.353  1.00  0.00     0.096 A 
ATOM      8  N   UNL     1       5.249  -1.055   0.614  1.00  0.00    -0.220 NA
ATOM      9  C   UNL     1       4.492  -2.173   0.571  1.00  0.00     0.137 A 
ATOM     10  C   UNL     1       3.113  -2.168   0.424  1.00  0.00     0.083 A 
ATOM     11  Cl  UNL     1       2.260  -3.669   0.385  1.00  0.00    -0.080 Cl
BRANCH   6  12
ATOM     12  O   UNL     1       5.295   1.306   0.538  1.00  0.00    -0.481 OA
ATOM     13  C   UNL     1       6.699   1.124   0.696  1.00  0.00     0.280 C 
ENDBRANCH   6  12
ENDBRANCH   1   5
BRANCH   2  14
ATOM     14  C   UNL     1      -1.239  -0.234  -0.108  1.00  0.00     0.118 A 
ATOM     15  S   UNL     1      -1.734  -1.863  -0.291  1.00  0.00    -0.106 S 
ATOM     16  C   UNL     1      -2.333   0.619  -0.145  1.00  0.00     0.065 A 
ATOM     17  C   UNL     1      -3.366  -1.426  -0.419  1.00  0.00     0.149 A 
ATOM     18  C   UNL     1      -3.598  -0.062  -0.293  1.00  0.00     0.043 A 
ATOM     19  N   UNL     1      -4.307  -2.367  -0.618  1.00  0.00    -0.138 NA
ATOM     20  C   UNL     1      -4.956   0.360  -0.335  1.00  0.00     0.001 A 
ATOM     21  N   UNL     1      -5.555  -1.978  -0.722  1.00  0.00    -0.137 NA
ATOM     22  C   UNL     1      -5.870  -0.669  -0.585  1.00  0.00     0.155 A 
ATOM     23  C   UNL     1      -5.398   1.784  -0.170  1.00  0.00     0.048 C 
ATOM     24  Cl  UNL     1      -7.561  -0.390  -0.773  1.00  0.00    -0.060 Cl
BRANCH  16  25
ATOM     25  N   UNL     1      -2.201   1.965  -0.048  1.00  0.00    -0.397 N 
ATOM     26  H   UNL     1      -2.878   2.597  -0.463  1.00  0.00     0.156 HD
ATOM     27  H   UNL     1      -1.257   2.367  -0.072  1.00  0.00     0.156 HD
ENDBRANCH  16  25
ENDBRANCH   2  14
TORSDOF 4
