REMARK SMILES COc1cncc(C(=O)NC2Cc3ccccc3C2)c1
REMARK SMILES IDX 3 1 4 2 5 3 6 4 7 5 20 6 2 7 1 8 8 9 9 10 10 11 11 13 12 14
REMARK SMILES IDX 19 15 13 16 18 17 14 18 17 19 15 20 16 21
REMARK H PARENT 10 12
ROOT
ATOM      1  C   UNL     1       4.799  -0.297   0.436  1.00  0.00     0.137 A 
ATOM      2  C   UNL     1       4.778  -1.567   1.004  1.00  0.00     0.157 A 
ATOM      3  N   UNL     1       3.657  -2.306   1.200  1.00  0.00    -0.260 NA
ATOM      4  C   UNL     1       2.492  -1.741   0.807  1.00  0.00     0.125 A 
ATOM      5  C   UNL     1       2.399  -0.470   0.255  1.00  0.00     0.061 A 
ATOM      6  C   UNL     1       3.579   0.256   0.055  1.00  0.00     0.063 A 
ENDROOT
BRANCH   1   7
ATOM      7  O   UNL     1       6.027   0.285   0.313  1.00  0.00    -0.495 OA
ATOM      8  C   UNL     1       6.073   1.559  -0.319  1.00  0.00     0.278 C 
ENDBRANCH   1   7
BRANCH   5   9
ATOM      9  C   UNL     1       1.104   0.120  -0.154  1.00  0.00     0.253 C 
ATOM     10  O   UNL     1       1.076   0.963  -1.042  1.00  0.00    -0.269 OA
ATOM     11  N   UNL     1      -0.017  -0.300   0.535  1.00  0.00    -0.349 N 
ATOM     12  H   UNL     1       0.110  -0.765   1.424  1.00  0.00     0.164 HD
BRANCH  11  13
ATOM     13  C   UNL     1      -1.317   0.313   0.285  1.00  0.00     0.091 C 
ATOM     14  C   UNL     1      -1.855   0.064  -1.146  1.00  0.00     0.061 C 
ATOM     15  C   UNL     1      -2.409  -0.210   1.246  1.00  0.00     0.061 C 
ATOM     16  C   UNL     1      -3.335   0.114  -0.926  1.00  0.00    -0.043 A 
ATOM     17  C   UNL     1      -3.648  -0.038   0.428  1.00  0.00    -0.043 A 
ATOM     18  C   UNL     1      -4.331   0.247  -1.879  1.00  0.00     0.004 A 
ATOM     19  C   UNL     1      -4.964  -0.062   0.859  1.00  0.00     0.004 A 
ATOM     20  C   UNL     1      -5.661   0.237  -1.453  1.00  0.00     0.000 A 
ATOM     21  C   UNL     1      -5.975   0.084  -0.093  1.00  0.00     0.000 A 
ENDBRANCH  11  13
ENDBRANCH   5   9
TORSDOF 3
