REMARK SMILES O=C(NC1CN(c2cncc(F)c2)C1)c1cncc(F)c1
REMARK SMILES IDX 4 1 5 2 6 3 14 4 3 5 1 6 2 7 15 9 16 10 21 11 17 12 19 13
REMARK SMILES IDX 18 14 20 15 7 16 8 17 13 18 9 19 11 20 10 21 12 22
REMARK H PARENT 3 8
ROOT
ATOM      1  C   UNL     1      -0.023   1.099   1.377  1.00  0.00     0.121 C 
ATOM      2  C   UNL     1       1.034   1.424   0.302  1.00  0.00     0.143 C 
ATOM      3  N   UNL     1       1.670   0.181   0.660  1.00  0.00    -0.366 N 
ATOM      4  C   UNL     1       1.062   0.173   1.963  1.00  0.00     0.143 C 
ENDROOT
BRANCH   1   5
ATOM      5  N   UNL     1      -1.229   0.396   0.855  1.00  0.00    -0.346 N 
ATOM      6  O   UNL     1      -2.387   2.323   0.422  1.00  0.00    -0.269 OA
ATOM      7  C   UNL     1      -2.314   1.100   0.375  1.00  0.00     0.253 C 
ATOM      8  H   UNL     1      -1.215  -0.614   0.804  1.00  0.00     0.164 HD
BRANCH   7   9
ATOM      9  C   UNL     1      -3.430   0.317  -0.202  1.00  0.00     0.061 A 
ATOM     10  C   UNL     1      -4.697   0.898  -0.236  1.00  0.00     0.125 A 
ATOM     11  C   UNL     1      -3.281  -0.963  -0.739  1.00  0.00     0.056 A 
ATOM     12  N   UNL     1      -5.802   0.285  -0.735  1.00  0.00    -0.261 NA
ATOM     13  C   UNL     1      -4.399  -1.602  -1.260  1.00  0.00     0.142 A 
ATOM     14  C   UNL     1      -5.624  -0.959  -1.237  1.00  0.00     0.150 A 
ATOM     15  F   UNL     1      -4.284  -2.830  -1.781  1.00  0.00    -0.205 F 
ENDBRANCH   7   9
ENDBRANCH   1   5
BRANCH   3  16
ATOM     16  C   UNL     1       2.978  -0.223   0.333  1.00  0.00     0.058 A 
ATOM     17  C   UNL     1       3.686  -1.152   1.104  1.00  0.00     0.137 A 
ATOM     18  C   UNL     1       3.627   0.263  -0.805  1.00  0.00     0.068 A 
ATOM     19  N   UNL     1       4.943  -1.592   0.840  1.00  0.00    -0.260 NA
ATOM     20  C   UNL     1       4.913  -0.170  -1.102  1.00  0.00     0.143 A 
ATOM     21  C   UNL     1       5.529  -1.083  -0.267  1.00  0.00     0.150 A 
ATOM     22  F   UNL     1       5.544   0.293  -2.189  1.00  0.00    -0.205 F 
ENDBRANCH   3  16
TORSDOF 3
