REMARK SMILES Cc1c(Cl)c2nncn2c2sc(NC(=O)C3CC3)c(N)c12
REMARK SMILES IDX 1 1 2 2 3 3 4 4 5 5 6 6 7 7 8 8 9 9 10 10 11 11 12 12 19 13
REMARK SMILES IDX 21 14 20 15 13 18 14 19 15 20 16 22 17 23 18 24
REMARK H PARENT 20 16 20 17 13 21
ROOT
ATOM      1  C   UNL     1      -2.698   2.633   0.499  1.00  0.00     0.047 C 
ATOM      2  C   UNL     1      -2.832   1.136   0.534  1.00  0.00    -0.016 C 
ATOM      3  C   UNL     1      -3.996   0.499   0.835  1.00  0.00     0.089 C 
ATOM      4  Cl  UNL     1      -5.480   1.333   1.153  1.00  0.00    -0.080 Cl
ATOM      5  C   UNL     1      -4.049  -0.926   0.914  1.00  0.00     0.180 A 
ATOM      6  N   UNL     1      -5.018  -1.782   1.177  1.00  0.00    -0.129 NA
ATOM      7  N   UNL     1      -4.491  -3.053   1.134  1.00  0.00    -0.138 NA
ATOM      8  C   UNL     1      -3.213  -2.946   0.846  1.00  0.00     0.231 A 
ATOM      9  N   UNL     1      -2.880  -1.631   0.693  1.00  0.00    -0.271 N 
ATOM     10  C   UNL     1      -1.692  -0.999   0.379  1.00  0.00     0.114 A 
ATOM     11  S   UNL     1      -0.270  -1.834   0.109  1.00  0.00    -0.097 S 
ATOM     12  C   UNL     1       0.562  -0.379  -0.183  1.00  0.00     0.121 A 
ATOM     13  C   UNL     1      -0.280   0.729  -0.125  1.00  0.00     0.077 A 
ATOM     14  C   UNL     1      -1.616   0.372   0.268  1.00  0.00     0.040 A 
ENDROOT
BRANCH  13  15
ATOM     15  N   UNL     1       0.167   1.979  -0.420  1.00  0.00    -0.396 N 
ATOM     16  H   UNL     1       0.977   2.084  -1.024  1.00  0.00     0.156 HD
ATOM     17  H   UNL     1      -0.497   2.716  -0.631  1.00  0.00     0.156 HD
ENDBRANCH  13  15
BRANCH  12  18
ATOM     18  N   UNL     1       1.926  -0.350  -0.426  1.00  0.00    -0.316 N 
ATOM     19  C   UNL     1       2.774  -1.431  -0.546  1.00  0.00     0.228 C 
ATOM     20  O   UNL     1       2.477  -2.616  -0.530  1.00  0.00    -0.274 OA
ATOM     21  H   UNL     1       2.330   0.572  -0.466  1.00  0.00     0.170 HD
BRANCH  19  22
ATOM     22  C   UNL     1       4.222  -1.090  -0.732  1.00  0.00     0.079 C 
ATOM     23  C   UNL     1       4.685   0.094  -1.550  1.00  0.00     0.014 C 
ATOM     24  C   UNL     1       4.879   0.093  -0.060  1.00  0.00     0.014 C 
ENDBRANCH  19  22
ENDBRANCH  12  18
TORSDOF 3
