REMARK SMILES O=C(Nc1cncc(-c2ccc(F)c(F)c2)c1)C1CC1
REMARK SMILES IDX 4 1 5 2 6 3 7 4 8 5 17 6 3 7 1 8 2 9 18 11 19 12 20 13 9 14
REMARK SMILES IDX 10 15 16 16 11 17 14 18 12 19 15 20 13 21
REMARK H PARENT 3 10
ROOT
ATOM      1  C   UNL     1      -0.713  -0.808   0.464  1.00  0.00     0.060 A 
ATOM      2  C   UNL     1      -0.405  -1.664   1.516  1.00  0.00     0.137 A 
ATOM      3  N   UNL     1       0.859  -1.943   1.919  1.00  0.00    -0.262 NA
ATOM      4  C   UNL     1       1.864  -1.343   1.241  1.00  0.00     0.119 A 
ATOM      5  C   UNL     1       1.685  -0.464   0.173  1.00  0.00     0.002 A 
ATOM      6  C   UNL     1       0.358  -0.207  -0.207  1.00  0.00     0.038 A 
ENDROOT
BRANCH   1   7
ATOM      7  N   UNL     1      -2.017  -0.496   0.028  1.00  0.00    -0.324 N 
ATOM      8  O   UNL     1      -3.334  -1.776   1.464  1.00  0.00    -0.274 OA
ATOM      9  C   UNL     1      -3.196  -0.979   0.550  1.00  0.00     0.227 C 
ATOM     10  H   UNL     1      -2.101   0.148  -0.747  1.00  0.00     0.169 HD
BRANCH   9  11
ATOM     11  C   UNL     1      -4.401  -0.450  -0.147  1.00  0.00     0.079 C 
ATOM     12  C   UNL     1      -5.487   0.228   0.657  1.00  0.00     0.014 C 
ATOM     13  C   UNL     1      -4.643   1.036  -0.285  1.00  0.00     0.014 C 
ENDBRANCH   9  11
ENDBRANCH   1   7
BRANCH   5  14
ATOM     14  C   UNL     1       2.823   0.160  -0.517  1.00  0.00    -0.014 A 
ATOM     15  C   UNL     1       3.823   0.844   0.204  1.00  0.00     0.012 A 
ATOM     16  C   UNL     1       2.945   0.094  -1.916  1.00  0.00     0.051 A 
ATOM     17  C   UNL     1       4.905   1.442  -0.450  1.00  0.00     0.043 A 
ATOM     18  C   UNL     1       4.026   0.692  -2.561  1.00  0.00     0.159 A 
ATOM     19  C   UNL     1       5.000   1.361  -1.833  1.00  0.00     0.158 A 
ATOM     20  F   UNL     1       4.116   0.614  -3.896  1.00  0.00    -0.204 F 
ATOM     21  F   UNL     1       6.036   1.937  -2.457  1.00  0.00    -0.204 F 
ENDBRANCH   5  14
TORSDOF 3
