REMARK SMILES Cc1c(Cl)c2nnc(C)n2c2sc(N3CC(NC(=O)c4ccc(F)c(F)c4)C3)c(N)c12
REMARK SMILES IDX 14 1 15 2 16 3 28 4 13 5 2 6 3 7 31 8 5 9 29 10 11 11 6 12
REMARK SMILES IDX 10 13 12 14 7 15 8 16 1 17 4 18 9 19 30 20 17 23 18 24 19 25
REMARK SMILES IDX 20 27 21 28 27 29 22 30 25 31 23 32 26 33 24 34
REMARK H PARENT 30 21 30 22 17 26
ROOT
ATOM      1  N   UNL     1      -0.072  -1.503   0.153  1.00  0.00    -0.357 N 
ATOM      2  C   UNL     1       1.020  -1.240  -0.761  1.00  0.00     0.144 C 
ATOM      3  C   UNL     1       1.975  -1.583   0.397  1.00  0.00     0.121 C 
ATOM      4  C   UNL     1       0.773  -1.233   1.291  1.00  0.00     0.144 C 
ENDROOT
BRANCH   1   5
ATOM      5  C   UNL     1      -1.317  -0.957  -0.003  1.00  0.00     0.117 A 
ATOM      6  C   UNL     1      -4.084   1.633  -0.070  1.00  0.00    -0.016 C 
ATOM      7  C   UNL     1      -5.408   1.469  -0.318  1.00  0.00     0.089 C 
ATOM      8  C   UNL     1      -3.177   0.491  -0.114  1.00  0.00     0.040 A 
ATOM      9  C   UNL     1      -5.943   0.178  -0.604  1.00  0.00     0.181 A 
ATOM     10  C   UNL     1      -1.749   0.371   0.033  1.00  0.00     0.076 A 
ATOM     11  C   UNL     1      -3.723  -0.753  -0.352  1.00  0.00     0.114 A 
ATOM     12  N   UNL     1      -7.166  -0.228  -0.876  1.00  0.00    -0.129 NA
ATOM     13  N   UNL     1      -5.084  -0.915  -0.598  1.00  0.00    -0.268 N 
ATOM     14  S   UNL     1      -2.633  -2.019  -0.321  1.00  0.00    -0.097 S 
ATOM     15  N   UNL     1      -7.136  -1.585  -1.047  1.00  0.00    -0.135 NA
ATOM     16  C   UNL     1      -5.896  -2.001  -0.879  1.00  0.00     0.135 A 
ATOM     17  C   UNL     1      -3.480   2.955   0.319  1.00  0.00     0.047 C 
ATOM     18  Cl  UNL     1      -6.546   2.776  -0.297  1.00  0.00    -0.080 Cl
ATOM     19  C   UNL     1      -5.474  -3.416  -0.987  1.00  0.00     0.090 C 
BRANCH  10  20
ATOM     20  N   UNL     1      -0.890   1.413   0.188  1.00  0.00    -0.396 N 
ATOM     21  H   UNL     1      -1.116   2.309  -0.231  1.00  0.00     0.156 HD
ATOM     22  H   UNL     1       0.104   1.231   0.079  1.00  0.00     0.156 HD
ENDBRANCH  10  20
ENDBRANCH   1   5
BRANCH   3  23
ATOM     23  N   UNL     1       3.156  -0.700   0.579  1.00  0.00    -0.346 N 
ATOM     24  C   UNL     1       4.032  -0.448  -0.459  1.00  0.00     0.251 C 
ATOM     25  O   UNL     1       3.861  -0.863  -1.598  1.00  0.00    -0.269 OA
ATOM     26  H   UNL     1       3.467  -0.500   1.521  1.00  0.00     0.164 HD
BRANCH  24  27
ATOM     27  C   UNL     1       5.245   0.350  -0.132  1.00  0.00     0.042 A 
ATOM     28  C   UNL     1       5.256   1.304   0.899  1.00  0.00     0.017 A 
ATOM     29  C   UNL     1       6.393   0.152  -0.911  1.00  0.00     0.056 A 
ATOM     30  C   UNL     1       6.419   2.035   1.162  1.00  0.00     0.043 A 
ATOM     31  C   UNL     1       7.543   0.885  -0.638  1.00  0.00     0.159 A 
ATOM     32  C   UNL     1       7.558   1.817   0.392  1.00  0.00     0.158 A 
ATOM     33  F   UNL     1       8.641   0.684  -1.380  1.00  0.00    -0.204 F 
ATOM     34  F   UNL     1       8.668   2.521   0.650  1.00  0.00    -0.204 F 
ENDBRANCH  24  27
ENDBRANCH   3  23
TORSDOF 4
