REMARK SMILES Cc1c(Cl)c2nncn2c2sc(C(=O)Nc3cnn(C4Cc5ccccc5C4)c3)c(N)c12
REMARK SMILES IDX 1 1 2 2 3 3 4 4 5 5 6 6 7 7 8 8 9 9 10 10 11 11 12 12 30 13
REMARK SMILES IDX 32 14 31 15 13 18 14 19 15 20 16 22 17 23 29 24 18 25 19 26
REMARK SMILES IDX 20 27 21 28 28 29 22 30 27 31 23 32 26 33 24 34 25 35
REMARK H PARENT 31 16 31 17 15 21
ROOT
ATOM      1  C   UNL     1      -7.302  -0.611  -1.556  1.00  0.00     0.047 C 
ATOM      2  C   UNL     1      -6.837  -0.352  -0.149  1.00  0.00    -0.016 C 
ATOM      3  C   UNL     1      -7.687  -0.135   0.891  1.00  0.00     0.089 C 
ATOM      4  Cl  UNL     1      -9.411  -0.176   0.735  1.00  0.00    -0.080 Cl
ATOM      5  C   UNL     1      -7.183   0.152   2.196  1.00  0.00     0.180 A 
ATOM      6  N   UNL     1      -7.762   0.396   3.356  1.00  0.00    -0.129 NA
ATOM      7  N   UNL     1      -6.775   0.625   4.289  1.00  0.00    -0.138 NA
ATOM      8  C   UNL     1      -5.617   0.516   3.679  1.00  0.00     0.231 A 
ATOM      9  N   UNL     1      -5.811   0.216   2.361  1.00  0.00    -0.271 N 
ATOM     10  C   UNL     1      -4.934  -0.006   1.316  1.00  0.00     0.113 A 
ATOM     11  S   UNL     1      -3.273   0.077   1.494  1.00  0.00    -0.109 S 
ATOM     12  C   UNL     1      -3.042  -0.326  -0.166  1.00  0.00     0.118 A 
ATOM     13  C   UNL     1      -4.264  -0.520  -0.811  1.00  0.00     0.065 A 
ATOM     14  C   UNL     1      -5.391  -0.311   0.054  1.00  0.00     0.038 A 
ENDROOT
BRANCH  13  15
ATOM     15  N   UNL     1      -4.323  -0.861  -2.120  1.00  0.00    -0.397 N 
ATOM     16  H   UNL     1      -5.093  -1.395  -2.505  1.00  0.00     0.156 HD
ATOM     17  H   UNL     1      -3.448  -1.092  -2.604  1.00  0.00     0.156 HD
ENDBRANCH  13  15
BRANCH  12  18
ATOM     18  C   UNL     1      -1.698  -0.459  -0.739  1.00  0.00     0.268 C 
ATOM     19  O   UNL     1      -1.519  -0.880  -1.882  1.00  0.00    -0.268 OA
ATOM     20  N   UNL     1      -0.661  -0.080   0.099  1.00  0.00    -0.319 N 
ATOM     21  H   UNL     1      -0.895   0.259   1.022  1.00  0.00     0.170 HD
BRANCH  20  22
ATOM     22  C   UNL     1       0.678  -0.125  -0.234  1.00  0.00     0.079 A 
ATOM     23  C   UNL     1       1.342  -0.532  -1.410  1.00  0.00     0.161 A 
ATOM     24  C   UNL     1       1.689   0.259   0.616  1.00  0.00     0.135 A 
ATOM     25  N   UNL     1       2.670  -0.415  -1.311  1.00  0.00    -0.179 NA
ATOM     26  N   UNL     1       2.858   0.069  -0.070  1.00  0.00    -0.267 N 
BRANCH  26  27
ATOM     27  C   UNL     1       4.194   0.337   0.418  1.00  0.00     0.116 C 
ATOM     28  C   UNL     1       4.960   1.395  -0.402  1.00  0.00     0.063 C 
ATOM     29  C   UNL     1       5.101  -0.910   0.476  1.00  0.00     0.063 C 
ATOM     30  C   UNL     1       6.378   1.031  -0.078  1.00  0.00    -0.043 A 
ATOM     31  C   UNL     1       6.458  -0.275   0.419  1.00  0.00    -0.043 A 
ATOM     32  C   UNL     1       7.517   1.798  -0.258  1.00  0.00     0.004 A 
ATOM     33  C   UNL     1       7.678  -0.842   0.747  1.00  0.00     0.004 A 
ATOM     34  C   UNL     1       8.750   1.239   0.082  1.00  0.00     0.000 A 
ATOM     35  C   UNL     1       8.830  -0.071   0.581  1.00  0.00     0.000 A 
ENDBRANCH  26  27
ENDBRANCH  20  22
ENDBRANCH  12  18
TORSDOF 4
