REMARK SMILES Cc1c(Cl)c2nnc(C)n2c2sc(C(=O)NC(=O)C3CC3)c(N)c12
REMARK SMILES IDX 1 1 2 2 3 3 4 4 5 5 6 6 7 7 8 8 9 9 10 10 11 11 12 12 13 13
REMARK SMILES IDX 22 14 24 15 23 16 14 19 15 20 16 21 17 22 18 23 19 25 20 26
REMARK SMILES IDX 21 27
REMARK H PARENT 23 17 23 18 16 24
ROOT
ATOM      1  C   UNL     1      -3.468  -3.188  -0.315  1.00  0.00     0.047 C 
ATOM      2  C   UNL     1      -3.202  -1.852   0.323  1.00  0.00    -0.016 C 
ATOM      3  C   UNL     1      -4.132  -1.174   1.044  1.00  0.00     0.089 C 
ATOM      4  Cl  UNL     1      -5.718  -1.790   1.365  1.00  0.00    -0.080 Cl
ATOM      5  C   UNL     1      -3.841   0.116   1.581  1.00  0.00     0.181 A 
ATOM      6  N   UNL     1      -4.559   0.953   2.301  1.00  0.00    -0.129 NA
ATOM      7  N   UNL     1      -3.805   2.069   2.535  1.00  0.00    -0.135 NA
ATOM      8  C   UNL     1      -2.630   1.911   1.957  1.00  0.00     0.135 A 
ATOM      9  C   UNL     1      -1.546   2.917   1.998  1.00  0.00     0.090 C 
ATOM     10  N   UNL     1      -2.593   0.675   1.333  1.00  0.00    -0.268 N 
ATOM     11  C   UNL     1      -1.631  -0.016   0.599  1.00  0.00     0.113 A 
ATOM     12  S   UNL     1      -0.111   0.594   0.248  1.00  0.00    -0.109 S 
ATOM     13  C   UNL     1       0.331  -0.840  -0.588  1.00  0.00     0.118 A 
ATOM     14  C   UNL     1      -0.708  -1.767  -0.573  1.00  0.00     0.065 A 
ATOM     15  C   UNL     1      -1.880  -1.278   0.099  1.00  0.00     0.038 A 
ENDROOT
BRANCH  14  16
ATOM     16  N   UNL     1      -0.573  -2.981  -1.157  1.00  0.00    -0.397 N 
ATOM     17  H   UNL     1       0.355  -3.252  -1.508  1.00  0.00     0.156 HD
ATOM     18  H   UNL     1      -1.070  -3.797  -0.820  1.00  0.00     0.156 HD
ENDBRANCH  14  16
BRANCH  13  19
ATOM     19  C   UNL     1       1.665  -1.002  -1.178  1.00  0.00     0.270 C 
ATOM     20  O   UNL     1       2.041  -2.079  -1.634  1.00  0.00    -0.268 OA
ATOM     21  N   UNL     1       2.438   0.147  -1.195  1.00  0.00    -0.291 N 
ATOM     22  C   UNL     1       3.755   0.222  -1.579  1.00  0.00     0.229 C 
ATOM     23  O   UNL     1       4.439  -0.656  -2.079  1.00  0.00    -0.274 OA
ATOM     24  H   UNL     1       2.026   0.978  -0.801  1.00  0.00     0.173 HD
BRANCH  22  25
ATOM     25  C   UNL     1       4.342   1.576  -1.378  1.00  0.00     0.079 C 
ATOM     26  C   UNL     1       5.590   1.726  -0.539  1.00  0.00     0.014 C 
ATOM     27  C   UNL     1       4.286   2.272  -0.036  1.00  0.00     0.014 C 
ENDBRANCH  22  25
ENDBRANCH  13  19
TORSDOF 3
