REMARK SMILES Cc1c(Cl)c2nncn2c2sc(C(=O)Nc3cnn(C4(F)CCCC4)c3)c(N)c12
REMARK SMILES IDX 13 1 14 2 15 3 12 5 2 6 3 7 29 8 5 9 27 10 10 11 6 12 9 13
REMARK SMILES IDX 11 14 7 15 8 16 1 17 4 18 28 19 16 22 17 23 26 24 18 25
REMARK SMILES IDX 19 26 20 27 22 28 25 29 23 30 24 31 21 32
REMARK H PARENT 15 4 28 20 28 21
ROOT
ATOM      1  C   UNL     1      -0.815  -0.724   0.142  1.00  0.00     0.268 C 
ATOM      2  O   UNL     1      -0.737  -1.952   0.099  1.00  0.00    -0.268 OA
ATOM      3  N   UNL     1       0.296   0.105   0.174  1.00  0.00    -0.319 N 
ATOM      4  H   UNL     1       0.144   1.104   0.206  1.00  0.00     0.170 HD
ENDROOT
BRANCH   1   5
ATOM      5  C   UNL     1      -2.109  -0.032   0.163  1.00  0.00     0.118 A 
ATOM      6  C   UNL     1      -5.885   0.293  -0.020  1.00  0.00    -0.016 C 
ATOM      7  C   UNL     1      -6.654   1.405   0.131  1.00  0.00     0.089 C 
ATOM      8  C   UNL     1      -4.432   0.374   0.101  1.00  0.00     0.038 A 
ATOM      9  C   UNL     1      -6.055   2.675   0.396  1.00  0.00     0.180 A 
ATOM     10  C   UNL     1      -3.377  -0.598   0.026  1.00  0.00     0.065 A 
ATOM     11  C   UNL     1      -3.880   1.614   0.331  1.00  0.00     0.113 A 
ATOM     12  N   UNL     1      -6.546   3.885   0.584  1.00  0.00    -0.129 NA
ATOM     13  N   UNL     1      -4.676   2.736   0.477  1.00  0.00    -0.271 N 
ATOM     14  S   UNL     1      -2.212   1.670   0.416  1.00  0.00    -0.109 S 
ATOM     15  N   UNL     1      -5.492   4.749   0.787  1.00  0.00    -0.138 NA
ATOM     16  C   UNL     1      -4.383   4.048   0.718  1.00  0.00     0.231 A 
ATOM     17  C   UNL     1      -6.449  -1.062  -0.348  1.00  0.00     0.047 C 
ATOM     18  Cl  UNL     1      -8.381   1.391   0.012  1.00  0.00    -0.080 Cl
BRANCH  10  19
ATOM     19  N   UNL     1      -3.539  -1.928  -0.165  1.00  0.00    -0.397 N 
ATOM     20  H   UNL     1      -2.714  -2.535  -0.088  1.00  0.00     0.156 HD
ATOM     21  H   UNL     1      -4.372  -2.420   0.137  1.00  0.00     0.156 HD
ENDBRANCH  10  19
ENDBRANCH   1   5
BRANCH   3  22
ATOM     22  C   UNL     1       1.605  -0.332   0.164  1.00  0.00     0.080 A 
ATOM     23  C   UNL     1       2.167  -1.624   0.123  1.00  0.00     0.161 A 
ATOM     24  C   UNL     1       2.689   0.512   0.196  1.00  0.00     0.138 A 
ATOM     25  N   UNL     1       3.503  -1.602   0.129  1.00  0.00    -0.176 NA
ATOM     26  N   UNL     1       3.806  -0.285   0.174  1.00  0.00    -0.234 N 
BRANCH  26  27
ATOM     27  C   UNL     1       5.191   0.182   0.192  1.00  0.00     0.201 C 
ATOM     28  C   UNL     1       6.021  -0.394   1.339  1.00  0.00     0.066 C 
ATOM     29  C   UNL     1       5.987  -0.218  -1.048  1.00  0.00     0.066 C 
ATOM     30  C   UNL     1       6.618  -1.691   0.799  1.00  0.00     0.006 C 
ATOM     31  C   UNL     1       6.577  -1.588  -0.726  1.00  0.00     0.006 C 
ATOM     32  F   UNL     1       5.211   1.547   0.293  1.00  0.00    -0.218 F 
ENDBRANCH  26  27
ENDBRANCH   3  22
TORSDOF 4
