REMARK SMILES Cc1c(Cl)nnc2sc(C(=O)NC(=O)c3ccncc3Cl)c(N)c12
REMARK SMILES IDX 1 1 2 2 3 3 4 4 5 5 6 6 7 7 8 8 9 9 22 10 24 11 23 12 10 15
REMARK SMILES IDX 11 16 12 17 13 18 14 19 15 21 16 22 20 23 17 24 19 25 18 26
REMARK SMILES IDX 21 27
REMARK H PARENT 23 13 23 14 12 20
ROOT
ATOM      1  C   UNL     1      -5.234  -1.052   0.980  1.00  0.00     0.048 C 
ATOM      2  C   UNL     1      -4.462  -0.133   0.080  1.00  0.00     0.001 A 
ATOM      3  C   UNL     1      -5.103   0.779  -0.766  1.00  0.00     0.155 A 
ATOM      4  Cl  UNL     1      -6.819   0.893  -0.885  1.00  0.00    -0.060 Cl
ATOM      5  N   UNL     1      -4.479   1.655  -1.587  1.00  0.00    -0.137 NA
ATOM      6  N   UNL     1      -3.170   1.696  -1.631  1.00  0.00    -0.138 NA
ATOM      7  C   UNL     1      -2.485   0.819  -0.875  1.00  0.00     0.149 A 
ATOM      8  S   UNL     1      -0.790   0.811  -0.899  1.00  0.00    -0.106 S 
ATOM      9  C   UNL     1      -0.711  -0.500   0.199  1.00  0.00     0.118 A 
ATOM     10  C   UNL     1      -1.984  -0.911   0.567  1.00  0.00     0.065 A 
ATOM     11  C   UNL     1      -3.043  -0.128  -0.026  1.00  0.00     0.043 A 
ENDROOT
BRANCH  10  12
ATOM     12  N   UNL     1      -2.187  -1.955   1.408  1.00  0.00    -0.397 N 
ATOM     13  H   UNL     1      -3.034  -2.512   1.370  1.00  0.00     0.156 HD
ATOM     14  H   UNL     1      -1.380  -2.533   1.673  1.00  0.00     0.156 HD
ENDBRANCH  10  12
BRANCH   9  15
ATOM     15  C   UNL     1       0.570  -1.077   0.614  1.00  0.00     0.270 C 
ATOM     16  O   UNL     1       0.624  -2.125   1.253  1.00  0.00    -0.268 OA
ATOM     17  N   UNL     1       1.692  -0.356   0.227  1.00  0.00    -0.287 N 
ATOM     18  C   UNL     1       2.997  -0.655   0.561  1.00  0.00     0.259 C 
ATOM     19  O   UNL     1       3.379  -1.700   1.075  1.00  0.00    -0.269 OA
ATOM     20  H   UNL     1       1.507   0.525  -0.232  1.00  0.00     0.173 HD
BRANCH  18  21
ATOM     21  C   UNL     1       4.030   0.341   0.161  1.00  0.00     0.061 A 
ATOM     22  C   UNL     1       5.265  -0.181  -0.250  1.00  0.00     0.035 A 
ATOM     23  C   UNL     1       3.856   1.726   0.195  1.00  0.00     0.072 A 
ATOM     24  C   UNL     1       6.264   0.695  -0.636  1.00  0.00     0.112 A 
ATOM     25  C   UNL     1       4.922   2.518  -0.212  1.00  0.00     0.132 A 
ATOM     26  N   UNL     1       6.114   2.034  -0.635  1.00  0.00    -0.263 NA
ATOM     27  Cl  UNL     1       2.424   2.512   0.741  1.00  0.00    -0.082 Cl
ENDBRANCH  18  21
ENDBRANCH   9  15
TORSDOF 3
