REMARK SMILES Cc1c(Cl)c2nncn2c2sc(C(=O)NC3CN(c4cncc(F)c4)C3)c(N)c12
REMARK SMILES IDX 13 1 14 2 15 3 12 5 2 6 3 7 29 8 5 9 27 10 10 11 6 12 9 13
REMARK SMILES IDX 11 14 7 15 8 16 1 17 4 18 28 19 16 22 17 23 26 24 18 25
REMARK SMILES IDX 19 26 20 27 25 28 21 29 23 30 22 31 24 32
REMARK H PARENT 15 4 28 20 28 21
ROOT
ATOM      1  C   UNL     1      -0.205  -1.640   0.010  1.00  0.00     0.263 C 
ATOM      2  O   UNL     1      -0.071  -2.744  -0.520  1.00  0.00    -0.268 OA
ATOM      3  N   UNL     1       0.855  -1.040   0.663  1.00  0.00    -0.345 N 
ATOM      4  H   UNL     1       0.725  -0.083   0.970  1.00  0.00     0.164 HD
ENDROOT
BRANCH   1   5
ATOM      5  C   UNL     1      -1.457  -0.886  -0.020  1.00  0.00     0.118 A 
ATOM      6  C   UNL     1      -5.134  -0.268  -0.719  1.00  0.00    -0.016 C 
ATOM      7  C   UNL     1      -5.864   0.860  -0.510  1.00  0.00     0.089 C 
ATOM      8  C   UNL     1      -3.711  -0.302  -0.392  1.00  0.00     0.038 A 
ATOM      9  C   UNL     1      -5.257   2.028   0.046  1.00  0.00     0.180 A 
ATOM     10  C   UNL     1      -2.690  -1.305  -0.519  1.00  0.00     0.065 A 
ATOM     11  C   UNL     1      -3.158   0.828   0.165  1.00  0.00     0.113 A 
ATOM     12  N   UNL     1      -5.713   3.229   0.346  1.00  0.00    -0.129 NA
ATOM     13  N   UNL     1      -3.915   1.966   0.375  1.00  0.00    -0.271 N 
ATOM     14  S   UNL     1      -1.538   0.731   0.566  1.00  0.00    -0.109 S 
ATOM     15  N   UNL     1      -4.676   3.962   0.877  1.00  0.00    -0.138 NA
ATOM     16  C   UNL     1      -3.610   3.194   0.889  1.00  0.00     0.231 A 
ATOM     17  C   UNL     1      -5.722  -1.545  -1.254  1.00  0.00     0.047 C 
ATOM     18  Cl  UNL     1      -7.551   0.984  -0.879  1.00  0.00    -0.080 Cl
BRANCH  10  19
ATOM     19  N   UNL     1      -2.854  -2.540  -1.048  1.00  0.00    -0.397 N 
ATOM     20  H   UNL     1      -2.023  -3.127  -1.186  1.00  0.00     0.156 HD
ATOM     21  H   UNL     1      -3.551  -2.737  -1.757  1.00  0.00     0.156 HD
ENDBRANCH  10  19
ENDBRANCH   1   5
BRANCH   3  22
ATOM     22  C   UNL     1       2.217  -1.633   0.660  1.00  0.00     0.121 C 
ATOM     23  C   UNL     1       3.056  -1.295  -0.589  1.00  0.00     0.143 C 
ATOM     24  C   UNL     1       3.277  -0.813   1.422  1.00  0.00     0.143 C 
ATOM     25  N   UNL     1       3.592  -0.191   0.164  1.00  0.00    -0.366 N 
BRANCH  25  26
ATOM     26  C   UNL     1       4.740   0.564  -0.144  1.00  0.00     0.058 A 
ATOM     27  C   UNL     1       5.472   1.242   0.838  1.00  0.00     0.137 A 
ATOM     28  C   UNL     1       5.189   0.702  -1.459  1.00  0.00     0.068 A 
ATOM     29  N   UNL     1       6.579   1.994   0.608  1.00  0.00    -0.260 NA
ATOM     30  C   UNL     1       6.317   1.467  -1.726  1.00  0.00     0.143 A 
ATOM     31  C   UNL     1       6.977   2.087  -0.680  1.00  0.00     0.150 A 
ATOM     32  F   UNL     1       6.757   1.601  -2.983  1.00  0.00    -0.205 F 
ENDBRANCH  25  26
ENDBRANCH   3  22
TORSDOF 4
