REMARK SMILES Cc1c(Cl)c2nncn2c2sc(C(=O)Nc3cncc(-c4ccncc4Cl)c3)c(N)c12
REMARK SMILES IDX 13 1 14 2 15 3 12 5 2 6 3 7 31 8 5 9 29 10 10 11 6 12 9 13
REMARK SMILES IDX 11 14 7 15 8 16 1 17 4 18 30 19 16 22 17 23 28 24 18 25
REMARK SMILES IDX 20 26 19 27 21 28 22 29 26 30 23 31 25 32 24 33 27 34
REMARK H PARENT 15 4 30 20 30 21
ROOT
ATOM      1  C   UNL     1      -0.089   0.001  -0.175  1.00  0.00     0.267 C 
ATOM      2  O   UNL     1       0.551   0.805  -0.849  1.00  0.00    -0.268 OA
ATOM      3  N   UNL     1       0.494  -0.984   0.608  1.00  0.00    -0.320 N 
ATOM      4  H   UNL     1      -0.152  -1.562   1.132  1.00  0.00     0.170 HD
ENDROOT
BRANCH   1   5
ATOM      5  C   UNL     1      -1.558   0.029  -0.143  1.00  0.00     0.118 A 
ATOM      6  C   UNL     1      -5.032   1.376  -0.862  1.00  0.00    -0.016 C 
ATOM      7  C   UNL     1      -6.239   0.843  -0.530  1.00  0.00     0.089 C 
ATOM      8  C   UNL     1      -3.795   0.689  -0.501  1.00  0.00     0.038 A 
ATOM      9  C   UNL     1      -6.320  -0.388   0.189  1.00  0.00     0.180 A 
ATOM     10  C   UNL     1      -2.405   0.971  -0.728  1.00  0.00     0.065 A 
ATOM     11  C   UNL     1      -3.901  -0.482   0.214  1.00  0.00     0.113 A 
ATOM     12  N   UNL     1      -7.330  -1.115   0.629  1.00  0.00    -0.129 NA
ATOM     13  N   UNL     1      -5.136  -1.008   0.547  1.00  0.00    -0.271 N 
ATOM     14  S   UNL     1      -2.460  -1.210   0.647  1.00  0.00    -0.109 S 
ATOM     15  N   UNL     1      -6.816  -2.214   1.281  1.00  0.00    -0.138 NA
ATOM     16  C   UNL     1      -5.506  -2.134   1.225  1.00  0.00     0.231 A 
ATOM     17  C   UNL     1      -4.878   2.691  -1.573  1.00  0.00     0.047 C 
ATOM     18  Cl  UNL     1      -7.750   1.590  -0.929  1.00  0.00    -0.080 Cl
BRANCH  10  19
ATOM     19  N   UNL     1      -1.914   2.026  -1.419  1.00  0.00    -0.397 N 
ATOM     20  H   UNL     1      -2.432   2.463  -2.173  1.00  0.00     0.156 HD
ATOM     21  H   UNL     1      -0.906   2.055  -1.612  1.00  0.00     0.156 HD
ENDBRANCH  10  19
ENDBRANCH   1   5
BRANCH   3  22
ATOM     22  C   UNL     1       1.866  -1.270   0.771  1.00  0.00     0.060 A 
ATOM     23  C   UNL     1       2.229  -2.293   1.647  1.00  0.00     0.137 A 
ATOM     24  C   UNL     1       2.902  -0.605   0.116  1.00  0.00     0.038 A 
ATOM     25  N   UNL     1       3.501  -2.673   1.904  1.00  0.00    -0.262 NA
ATOM     26  C   UNL     1       4.241  -0.966   0.341  1.00  0.00     0.004 A 
ATOM     27  C   UNL     1       4.472  -2.003   1.244  1.00  0.00     0.119 A 
BRANCH  26  28
ATOM     28  C   UNL     1       5.344  -0.266  -0.333  1.00  0.00     0.005 A 
ATOM     29  C   UNL     1       5.599   1.078  -0.012  1.00  0.00     0.030 A 
ATOM     30  C   UNL     1       6.166  -0.872  -1.295  1.00  0.00     0.067 A 
ATOM     31  C   UNL     1       6.641   1.743  -0.640  1.00  0.00     0.111 A 
ATOM     32  C   UNL     1       7.185  -0.119  -1.868  1.00  0.00     0.132 A 
ATOM     33  N   UNL     1       7.443   1.173  -1.560  1.00  0.00    -0.263 NA
ATOM     34  Cl  UNL     1       5.952  -2.502  -1.816  1.00  0.00    -0.082 Cl
ENDBRANCH  26  28
ENDBRANCH   3  22
TORSDOF 4
