REMARK SMILES Cc1ccc(C2Cc3ccccc3C2)c(C(=O)NC2CC2)n1
REMARK SMILES IDX 1 1 2 2 3 3 4 4 5 5 15 6 22 7 16 8 17 9 18 10 19 12 20 13
REMARK SMILES IDX 21 14 6 15 7 16 14 17 8 18 13 19 9 20 12 21 10 22 11 23
REMARK H PARENT 18 11
ROOT
ATOM      1  C   UNL     1      -3.601  -3.329   0.431  1.00  0.00     0.067 C 
ATOM      2  C   UNL     1      -2.332  -2.556   0.235  1.00  0.00     0.038 A 
ATOM      3  C   UNL     1      -1.110  -3.207   0.228  1.00  0.00     0.024 A 
ATOM      4  C   UNL     1       0.051  -2.461   0.035  1.00  0.00     0.008 A 
ATOM      5  C   UNL     1      -0.002  -1.071  -0.160  1.00  0.00    -0.013 A 
ATOM      6  C   UNL     1      -1.278  -0.494  -0.086  1.00  0.00     0.131 A 
ATOM      7  N   UNL     1      -2.432  -1.219   0.086  1.00  0.00    -0.248 NA
ENDROOT
BRANCH   6   8
ATOM      8  C   UNL     1      -1.543   0.998  -0.152  1.00  0.00     0.270 C 
ATOM      9  O   UNL     1      -0.663   1.847  -0.109  1.00  0.00    -0.267 OA
ATOM     10  N   UNL     1      -2.891   1.306  -0.239  1.00  0.00    -0.348 N 
ATOM     11  H   UNL     1      -3.523   0.510  -0.190  1.00  0.00     0.164 HD
BRANCH  10  12
ATOM     12  C   UNL     1      -3.396   2.636  -0.236  1.00  0.00     0.082 C 
ATOM     13  C   UNL     1      -4.876   2.895  -0.176  1.00  0.00     0.027 C 
ATOM     14  C   UNL     1      -4.011   3.214   1.008  1.00  0.00     0.027 C 
ENDBRANCH  10  12
ENDBRANCH   6   8
BRANCH   5  15
ATOM     15  C   UNL     1       1.267  -0.276  -0.395  1.00  0.00     0.030 C 
ATOM     16  C   UNL     1       1.932   0.180   0.926  1.00  0.00     0.044 C 
ATOM     17  C   UNL     1       2.393  -0.961  -1.222  1.00  0.00     0.044 C 
ATOM     18  C   UNL     1       3.352   0.389   0.498  1.00  0.00    -0.044 A 
ATOM     19  C   UNL     1       3.612  -0.251  -0.717  1.00  0.00    -0.044 A 
ATOM     20  C   UNL     1       4.348   1.076   1.171  1.00  0.00     0.004 A 
ATOM     21  C   UNL     1       4.874  -0.220  -1.286  1.00  0.00     0.004 A 
ATOM     22  C   UNL     1       5.622   1.123   0.600  1.00  0.00     0.000 A 
ATOM     23  C   UNL     1       5.883   0.479  -0.620  1.00  0.00     0.000 A 
ENDBRANCH   5  15
TORSDOF 3
