REMARK SMILES Cc1c(Cl)c2nnc(C)n2c2sc(-c3cncc(C(=O)NC4CC4)c3)c(N)c12
REMARK SMILES IDX 1 1 2 2 3 3 4 4 5 5 6 6 7 7 8 8 9 9 10 10 11 11 12 12 13 13
REMARK SMILES IDX 26 14 28 15 27 16 14 19 15 20 25 21 16 22 18 23 17 24 19 25
REMARK SMILES IDX 20 26 21 27 22 29 23 30 24 31
REMARK H PARENT 27 17 27 18 21 28
ROOT
ATOM      1  C   UNL     1      -3.657  -3.501   0.381  1.00  0.00     0.047 C 
ATOM      2  C   UNL     1      -4.027  -2.098  -0.015  1.00  0.00    -0.016 C 
ATOM      3  C   UNL     1      -5.260  -1.757  -0.470  1.00  0.00     0.089 C 
ATOM      4  Cl  UNL     1      -6.537  -2.905  -0.703  1.00  0.00    -0.080 Cl
ATOM      5  C   UNL     1      -5.576  -0.401  -0.778  1.00  0.00     0.181 A 
ATOM      6  N   UNL     1      -6.676   0.167  -1.228  1.00  0.00    -0.129 NA
ATOM      7  N   UNL     1      -6.449   1.512  -1.333  1.00  0.00    -0.135 NA
ATOM      8  C   UNL     1      -5.212   1.760  -0.948  1.00  0.00     0.135 A 
ATOM      9  C   UNL     1      -4.606   3.110  -0.925  1.00  0.00     0.090 C 
ATOM     10  N   UNL     1      -4.601   0.571  -0.584  1.00  0.00    -0.268 N 
ATOM     11  C   UNL     1      -3.332   0.229  -0.124  1.00  0.00     0.113 A 
ATOM     12  S   UNL     1      -2.112   1.345   0.142  1.00  0.00    -0.114 S 
ATOM     13  C   UNL     1      -1.024   0.110   0.625  1.00  0.00     0.062 A 
ATOM     14  C   UNL     1      -1.615  -1.147   0.561  1.00  0.00     0.060 A 
ATOM     15  C   UNL     1      -2.994  -1.082   0.150  1.00  0.00     0.038 A 
ENDROOT
BRANCH  14  16
ATOM     16  N   UNL     1      -0.927  -2.271   0.874  1.00  0.00    -0.397 N 
ATOM     17  H   UNL     1       0.076  -2.234   1.044  1.00  0.00     0.156 HD
ATOM     18  H   UNL     1      -1.192  -3.179   0.511  1.00  0.00     0.156 HD
ENDBRANCH  14  16
BRANCH  13  19
ATOM     19  C   UNL     1       0.340   0.489   0.991  1.00  0.00     0.013 A 
ATOM     20  C   UNL     1       0.609   1.257   2.122  1.00  0.00     0.120 A 
ATOM     21  C   UNL     1       1.432   0.076   0.221  1.00  0.00     0.026 A 
ATOM     22  N   UNL     1       1.853   1.622   2.519  1.00  0.00    -0.263 NA
ATOM     23  C   UNL     1       2.727   0.444   0.597  1.00  0.00     0.058 A 
ATOM     24  C   UNL     1       2.885   1.196   1.752  1.00  0.00     0.124 A 
BRANCH  23  25
ATOM     25  C   UNL     1       3.876  -0.018  -0.210  1.00  0.00     0.253 C 
ATOM     26  O   UNL     1       3.788  -1.075  -0.825  1.00  0.00    -0.269 OA
ATOM     27  N   UNL     1       4.983   0.810  -0.239  1.00  0.00    -0.349 N 
ATOM     28  H   UNL     1       4.921   1.750   0.132  1.00  0.00     0.164 HD
BRANCH  27  29
ATOM     29  C   UNL     1       6.142   0.485  -1.011  1.00  0.00     0.082 C 
ATOM     30  C   UNL     1       7.326  -0.176  -0.362  1.00  0.00     0.027 C 
ATOM     31  C   UNL     1       7.425   1.248  -0.824  1.00  0.00     0.027 C 
ENDBRANCH  27  29
ENDBRANCH  23  25
ENDBRANCH  13  19
TORSDOF 4
