REMARK SMILES O=C(Nc1ccc(F)c(F)c1)C1CN(c2ccncc2Cl)C1
REMARK SMILES IDX 12 1 13 2 14 3 22 4 2 5 1 6 3 7 4 9 5 10 11 11 6 12 9 13
REMARK SMILES IDX 7 14 10 15 8 16 15 17 16 18 20 19 17 20 19 21 18 22 21 23
REMARK H PARENT 3 8
ROOT
ATOM      1  C   UNL     1      -0.385   0.523   0.644  1.00  0.00     0.117 C 
ATOM      2  C   UNL     1      -1.192   0.577  -0.663  1.00  0.00     0.132 C 
ATOM      3  N   UNL     1      -2.371   0.401   0.142  1.00  0.00    -0.369 N 
ATOM      4  C   UNL     1      -1.609  -0.221   1.197  1.00  0.00     0.132 C 
ENDROOT
BRANCH   1   5
ATOM      5  C   UNL     1       0.966  -0.222   0.608  1.00  0.00     0.231 C 
ATOM      6  O   UNL     1       1.062  -1.436   0.791  1.00  0.00    -0.274 OA
ATOM      7  N   UNL     1       2.036   0.626   0.360  1.00  0.00    -0.326 N 
ATOM      8  H   UNL     1       1.811   1.607   0.238  1.00  0.00     0.169 HD
BRANCH   7   9
ATOM      9  C   UNL     1       3.403   0.291   0.257  1.00  0.00     0.044 A 
ATOM     10  C   UNL     1       3.906  -1.009   0.391  1.00  0.00     0.029 A 
ATOM     11  C   UNL     1       4.297   1.339   0.004  1.00  0.00     0.068 A 
ATOM     12  C   UNL     1       5.279  -1.258   0.274  1.00  0.00     0.044 A 
ATOM     13  C   UNL     1       5.662   1.083  -0.111  1.00  0.00     0.160 A 
ATOM     14  C   UNL     1       6.151  -0.208   0.024  1.00  0.00     0.158 A 
ATOM     15  F   UNL     1       6.499   2.101  -0.353  1.00  0.00    -0.204 F 
ATOM     16  F   UNL     1       7.464  -0.450  -0.087  1.00  0.00    -0.204 F 
ENDBRANCH   7   9
ENDBRANCH   1   5
BRANCH   3  17
ATOM     17  C   UNL     1      -3.670   0.017  -0.288  1.00  0.00     0.059 A 
ATOM     18  C   UNL     1      -4.480  -0.721   0.593  1.00  0.00     0.047 A 
ATOM     19  C   UNL     1      -4.230   0.355  -1.532  1.00  0.00     0.082 A 
ATOM     20  C   UNL     1      -5.756  -1.109   0.207  1.00  0.00     0.113 A 
ATOM     21  C   UNL     1      -5.521  -0.082  -1.825  1.00  0.00     0.133 A 
ATOM     22  N   UNL     1      -6.296  -0.810  -0.989  1.00  0.00    -0.263 NA
ATOM     23  Cl  UNL     1      -3.439   1.316  -2.728  1.00  0.00    -0.080 Cl
ENDBRANCH   3  17
TORSDOF 3
