REMARK SMILES Cc1ccc(C(=O)Nc2sc3c(c(C)c(Cl)c4nncn43)c2N)c(C2Cc3ccccc3C2)n1
REMARK SMILES IDX 9 1 10 2 11 3 12 4 13 5 14 6 15 7 16 8 17 9 18 10 19 11
REMARK SMILES IDX 20 12 21 13 22 14 8 15 6 16 7 17 5 19 2 20 3 21 34 22 4 23
REMARK SMILES IDX 24 24 1 25 25 26 26 27 33 28 27 29 32 30 28 31 31 32 29 33
REMARK SMILES IDX 30 34 23 35
REMARK H PARENT 8 18 23 36 23 37
ROOT
ATOM      1  C   UNL     1       2.436   0.007  -0.882  1.00  0.00     0.121 A 
ATOM      2  S   UNL     1       2.635   1.677  -1.136  1.00  0.00    -0.097 S 
ATOM      3  C   UNL     1       4.296   1.498  -1.189  1.00  0.00     0.114 A 
ATOM      4  C   UNL     1       4.769   0.214  -1.028  1.00  0.00     0.040 A 
ATOM      5  C   UNL     1       6.214   0.017  -1.106  1.00  0.00    -0.016 C 
ATOM      6  C   UNL     1       6.697  -1.404  -1.019  1.00  0.00     0.047 C 
ATOM      7  C   UNL     1       7.047   1.077  -1.290  1.00  0.00     0.089 C 
ATOM      8  Cl  UNL     1       8.770   0.926  -1.384  1.00  0.00    -0.080 Cl
ATOM      9  C   UNL     1       6.527   2.400  -1.426  1.00  0.00     0.180 A 
ATOM     10  N   UNL     1       7.090   3.579  -1.607  1.00  0.00    -0.129 NA
ATOM     11  N   UNL     1       6.091   4.524  -1.685  1.00  0.00    -0.138 NA
ATOM     12  C   UNL     1       4.941   3.902  -1.550  1.00  0.00     0.231 A 
ATOM     13  N   UNL     1       5.154   2.564  -1.381  1.00  0.00    -0.271 N 
ATOM     14  C   UNL     1       3.654  -0.661  -0.789  1.00  0.00     0.077 A 
ENDROOT
BRANCH   1  15
ATOM     15  N   UNL     1       1.181  -0.577  -0.816  1.00  0.00    -0.312 N 
ATOM     16  C   UNL     1      -0.037   0.075  -0.808  1.00  0.00     0.258 C 
ATOM     17  O   UNL     1      -0.251   1.278  -0.766  1.00  0.00    -0.269 OA
ATOM     18  H   UNL     1       1.184  -1.588  -0.780  1.00  0.00     0.171 HD
BRANCH  16  19
ATOM     19  C   UNL     1      -1.197  -0.847  -0.825  1.00  0.00     0.062 A 
ATOM     20  C   UNL     1      -3.336  -2.568  -0.890  1.00  0.00     0.038 A 
ATOM     21  C   UNL     1      -2.364  -2.678  -1.875  1.00  0.00     0.024 A 
ATOM     22  N   UNL     1      -3.265  -1.645   0.098  1.00  0.00    -0.257 NA
ATOM     23  C   UNL     1      -1.281  -1.808  -1.841  1.00  0.00     0.017 A 
ATOM     24  C   UNL     1      -2.215  -0.779   0.132  1.00  0.00     0.057 A 
ATOM     25  C   UNL     1      -4.528  -3.477  -0.894  1.00  0.00     0.067 C 
BRANCH  24  26
ATOM     26  C   UNL     1      -2.217   0.266   1.242  1.00  0.00     0.048 C 
ATOM     27  C   UNL     1      -2.907   1.573   0.778  1.00  0.00     0.046 C 
ATOM     28  C   UNL     1      -2.963  -0.181   2.527  1.00  0.00     0.046 C 
ATOM     29  C   UNL     1      -4.267   1.469   1.398  1.00  0.00    -0.044 A 
ATOM     30  C   UNL     1      -4.300   0.479   2.382  1.00  0.00    -0.044 A 
ATOM     31  C   UNL     1      -5.385   2.238   1.123  1.00  0.00     0.004 A 
ATOM     32  C   UNL     1      -5.451   0.235   3.112  1.00  0.00     0.004 A 
ATOM     33  C   UNL     1      -6.554   1.994   1.846  1.00  0.00     0.000 A 
ATOM     34  C   UNL     1      -6.587   0.998   2.834  1.00  0.00     0.000 A 
ENDBRANCH  24  26
ENDBRANCH  16  19
ENDBRANCH   1  15
BRANCH  14  35
ATOM     35  N   UNL     1       3.716  -1.989  -0.501  1.00  0.00    -0.396 N 
ATOM     36  H   UNL     1       2.954  -2.416   0.018  1.00  0.00     0.156 HD
ATOM     37  H   UNL     1       4.591  -2.396  -0.189  1.00  0.00     0.156 HD
ENDBRANCH  14  35
TORSDOF 4
