REMARK SMILES Cc1c(Cl)c2nnc(C)n2c2sc(C(=O)NC3CN(c4ccc(F)c(F)c4)C3)c(N)c12
REMARK SMILES IDX 14 1 15 2 16 3 13 5 2 6 3 7 31 8 5 9 29 10 11 11 6 12 10 13
REMARK SMILES IDX 12 14 7 15 8 16 1 17 4 18 9 19 30 20 17 23 18 24 28 25 19 26
REMARK SMILES IDX 20 27 21 28 27 29 22 30 25 31 23 32 26 33 24 34
REMARK H PARENT 16 4 30 21 30 22
ROOT
ATOM      1  C   UNL     1      -0.166   0.590  -1.934  1.00  0.00     0.263 C 
ATOM      2  O   UNL     1       0.013   1.425  -2.822  1.00  0.00    -0.268 OA
ATOM      3  N   UNL     1       0.852  -0.264  -1.555  1.00  0.00    -0.345 N 
ATOM      4  H   UNL     1       0.693  -0.829  -0.729  1.00  0.00     0.164 HD
ENDROOT
BRANCH   1   5
ATOM      5  C   UNL     1      -1.433   0.444  -1.220  1.00  0.00     0.118 A 
ATOM      6  C   UNL     1      -4.979   1.323  -0.227  1.00  0.00    -0.016 C 
ATOM      7  C   UNL     1      -5.818   0.679   0.624  1.00  0.00     0.089 C 
ATOM      8  C   UNL     1      -3.641   0.801  -0.481  1.00  0.00     0.038 A 
ATOM      9  C   UNL     1      -5.403  -0.508   1.300  1.00  0.00     0.181 A 
ATOM     10  C   UNL     1      -2.574   1.233  -1.341  1.00  0.00     0.065 A 
ATOM     11  C   UNL     1      -3.249  -0.329   0.208  1.00  0.00     0.113 A 
ATOM     12  N   UNL     1      -6.021  -1.299   2.151  1.00  0.00    -0.129 NA
ATOM     13  N   UNL     1      -4.113  -0.980   1.085  1.00  0.00    -0.268 N 
ATOM     14  S   UNL     1      -1.681  -0.831  -0.097  1.00  0.00    -0.109 S 
ATOM     15  N   UNL     1      -5.157  -2.294   2.514  1.00  0.00    -0.135 NA
ATOM     16  C   UNL     1      -4.014  -2.107   1.884  1.00  0.00     0.135 A 
ATOM     17  C   UNL     1      -5.338   2.608  -0.921  1.00  0.00     0.047 C 
ATOM     18  Cl  UNL     1      -7.425   1.226   0.970  1.00  0.00    -0.080 Cl
ATOM     19  C   UNL     1      -2.833  -2.988   2.031  1.00  0.00     0.090 C 
BRANCH  10  20
ATOM     20  N   UNL     1      -2.613   2.288  -2.189  1.00  0.00    -0.397 N 
ATOM     21  H   UNL     1      -1.821   2.427  -2.828  1.00  0.00     0.156 HD
ATOM     22  H   UNL     1      -3.476   2.590  -2.626  1.00  0.00     0.156 HD
ENDBRANCH  10  20
ENDBRANCH   1   5
BRANCH   3  23
ATOM     23  C   UNL     1       2.231  -0.130  -2.092  1.00  0.00     0.121 C 
ATOM     24  C   UNL     1       3.110   0.887  -1.337  1.00  0.00     0.143 C 
ATOM     25  C   UNL     1       3.231  -1.176  -1.560  1.00  0.00     0.143 C 
ATOM     26  N   UNL     1       3.575  -0.221  -0.542  1.00  0.00    -0.367 N 
BRANCH  26  27
ATOM     27  C   UNL     1       4.704  -0.245   0.300  1.00  0.00     0.040 A 
ATOM     28  C   UNL     1       5.192   0.937   0.882  1.00  0.00     0.029 A 
ATOM     29  C   UNL     1       5.348  -1.452   0.606  1.00  0.00     0.068 A 
ATOM     30  C   UNL     1       6.304   0.919   1.731  1.00  0.00     0.044 A 
ATOM     31  C   UNL     1       6.455  -1.466   1.451  1.00  0.00     0.160 A 
ATOM     32  C   UNL     1       6.931  -0.288   2.009  1.00  0.00     0.158 A 
ATOM     33  F   UNL     1       7.056  -2.632   1.725  1.00  0.00    -0.204 F 
ATOM     34  F   UNL     1       7.996  -0.305   2.822  1.00  0.00    -0.204 F 
ENDBRANCH  26  27
ENDBRANCH   3  23
TORSDOF 4
