REMARK SMILES O=C(NC1Cc2ccccc2C1)c1cnn(C2(F)CCCC2)c1
REMARK SMILES IDX 13 1 14 2 15 3 16 4 23 5 2 6 1 7 3 8 4 10 5 11 12 12 6 13
REMARK SMILES IDX 11 14 7 15 10 16 8 17 9 18 17 19 19 20 22 21 20 22 21 23
REMARK SMILES IDX 18 24
REMARK H PARENT 3 9
ROOT
ATOM      1  C   UNL     1      -0.971   0.213  -0.565  1.00  0.00     0.077 A 
ATOM      2  C   UNL     1      -1.479   1.450  -1.016  1.00  0.00     0.149 A 
ATOM      3  N   UNL     1      -2.808   1.530  -0.939  1.00  0.00    -0.178 NA
ATOM      4  N   UNL     1      -3.183   0.329  -0.443  1.00  0.00    -0.236 N 
ATOM      5  C   UNL     1      -2.109  -0.490  -0.213  1.00  0.00     0.126 A 
ENDROOT
BRANCH   1   6
ATOM      6  C   UNL     1       0.388  -0.293  -0.475  1.00  0.00     0.254 C 
ATOM      7  O   UNL     1       0.629  -1.455  -0.166  1.00  0.00    -0.269 OA
ATOM      8  N   UNL     1       1.379   0.630  -0.739  1.00  0.00    -0.349 N 
ATOM      9  H   UNL     1       1.131   1.608  -0.759  1.00  0.00     0.164 HD
BRANCH   8  10
ATOM     10  C   UNL     1       2.781   0.289  -0.554  1.00  0.00     0.091 C 
ATOM     11  C   UNL     1       3.199   0.253   0.935  1.00  0.00     0.061 C 
ATOM     12  C   UNL     1       3.730   1.288  -1.251  1.00  0.00     0.061 C 
ATOM     13  C   UNL     1       4.646   0.626   0.852  1.00  0.00    -0.043 A 
ATOM     14  C   UNL     1       4.946   1.210  -0.383  1.00  0.00    -0.043 A 
ATOM     15  C   UNL     1       5.615   0.487   1.831  1.00  0.00     0.004 A 
ATOM     16  C   UNL     1       6.222   1.668  -0.665  1.00  0.00     0.004 A 
ATOM     17  C   UNL     1       6.908   0.936   1.552  1.00  0.00     0.000 A 
ATOM     18  C   UNL     1       7.209   1.522   0.312  1.00  0.00     0.000 A 
ENDBRANCH   8  10
ENDBRANCH   1   6
BRANCH   4  19
ATOM     19  C   UNL     1      -4.591   0.018  -0.228  1.00  0.00     0.201 C 
ATOM     20  C   UNL     1      -4.917  -0.449   1.190  1.00  0.00     0.066 C 
ATOM     21  C   UNL     1      -5.102  -1.136  -1.092  1.00  0.00     0.066 C 
ATOM     22  C   UNL     1      -6.300  -1.073   1.045  1.00  0.00     0.006 C 
ATOM     23  C   UNL     1      -6.366  -1.619  -0.382  1.00  0.00     0.006 C 
ATOM     24  F   UNL     1      -5.389   1.104  -0.487  1.00  0.00    -0.218 F 
ENDBRANCH   4  19
TORSDOF 3
