REMARK SMILES Cc1c(Cl)c2nncn2c2sc(C(=O)NC3(F)CCCC3)c(N)c12
REMARK SMILES IDX 1 1 2 2 3 3 4 4 5 5 6 6 7 7 8 8 9 9 10 10 11 11 12 12 22 13
REMARK SMILES IDX 24 14 23 15 13 18 14 19 15 20 16 22 18 23 21 24 19 25 20 26
REMARK SMILES IDX 17 27
REMARK H PARENT 23 16 23 17 15 21
ROOT
ATOM      1  C   UNL     1      -4.113   2.097  -1.299  1.00  0.00     0.047 C 
ATOM      2  C   UNL     1      -4.011   0.698  -0.758  1.00  0.00    -0.016 C 
ATOM      3  C   UNL     1      -5.091  -0.100  -0.541  1.00  0.00     0.089 C 
ATOM      4  Cl  UNL     1      -6.715   0.377  -0.905  1.00  0.00    -0.080 Cl
ATOM      5  C   UNL     1      -4.933  -1.404   0.021  1.00  0.00     0.180 A 
ATOM      6  N   UNL     1      -5.782  -2.366   0.329  1.00  0.00    -0.129 NA
ATOM      7  N   UNL     1      -5.067  -3.415   0.863  1.00  0.00    -0.138 NA
ATOM      8  C   UNL     1      -3.800  -3.071   0.870  1.00  0.00     0.231 A 
ATOM      9  N   UNL     1      -3.654  -1.817   0.348  1.00  0.00    -0.271 N 
ATOM     10  C   UNL     1      -2.545  -1.021   0.128  1.00  0.00     0.113 A 
ATOM     11  S   UNL     1      -0.994  -1.500   0.525  1.00  0.00    -0.109 S 
ATOM     12  C   UNL     1      -0.348  -0.019  -0.074  1.00  0.00     0.118 A 
ATOM     13  C   UNL     1      -1.357   0.806  -0.572  1.00  0.00     0.065 A 
ATOM     14  C   UNL     1      -2.666   0.229  -0.436  1.00  0.00     0.038 A 
ENDROOT
BRANCH  13  15
ATOM     15  N   UNL     1      -1.078   2.016  -1.110  1.00  0.00    -0.397 N 
ATOM     16  H   UNL     1      -1.663   2.438  -1.821  1.00  0.00     0.156 HD
ATOM     17  H   UNL     1      -0.094   2.270  -1.254  1.00  0.00     0.156 HD
ENDBRANCH  13  15
BRANCH  12  18
ATOM     18  C   UNL     1       1.090   0.245  -0.051  1.00  0.00     0.265 C 
ATOM     19  O   UNL     1       1.592   1.236  -0.581  1.00  0.00    -0.268 OA
ATOM     20  N   UNL     1       1.863  -0.684   0.602  1.00  0.00    -0.319 N 
ATOM     21  H   UNL     1       1.420  -1.482   1.032  1.00  0.00     0.167 HD
BRANCH  20  22
ATOM     22  C   UNL     1       3.286  -0.612   0.737  1.00  0.00     0.182 C 
ATOM     23  C   UNL     1       3.821   0.604   1.499  1.00  0.00     0.064 C 
ATOM     24  C   UNL     1       4.074  -0.662  -0.568  1.00  0.00     0.064 C 
ATOM     25  C   UNL     1       5.146   0.965   0.820  1.00  0.00     0.005 C 
ATOM     26  C   UNL     1       5.451  -0.180  -0.137  1.00  0.00     0.005 C 
ATOM     27  F   UNL     1       3.636  -1.722   1.456  1.00  0.00    -0.220 F 
ENDBRANCH  20  22
ENDBRANCH  12  18
TORSDOF 3
