REMARK SMILES Cc1c(Cl)c2nnc(C)n2c2sc(N3CC(C(=O)NC4Cc5ccccc5C4)C3)c(N)c12
REMARK SMILES IDX 1 1 2 2 3 3 4 4 5 5 6 6 7 7 8 8 9 9 10 10 11 11 12 12 13 13
REMARK SMILES IDX 30 14 32 15 31 16 14 19 15 20 29 21 16 22 17 23 18 24 19 25
REMARK SMILES IDX 20 27 21 28 28 29 22 30 27 31 23 32 26 33 24 34 25 35
REMARK H PARENT 31 17 31 18 19 26
ROOT
ATOM      1  C   UNL     1      -4.323  -2.402  -1.781  1.00  0.00     0.047 C 
ATOM      2  C   UNL     1      -4.946  -1.184  -1.156  1.00  0.00    -0.016 C 
ATOM      3  C   UNL     1      -6.262  -0.877  -1.289  1.00  0.00     0.089 C 
ATOM      4  Cl  UNL     1      -7.362  -1.807  -2.253  1.00  0.00    -0.080 Cl
ATOM      5  C   UNL     1      -6.821   0.248  -0.614  1.00  0.00     0.181 A 
ATOM      6  N   UNL     1      -8.041   0.744  -0.590  1.00  0.00    -0.129 NA
ATOM      7  N   UNL     1      -8.043   1.828   0.245  1.00  0.00    -0.135 NA
ATOM      8  C   UNL     1      -6.826   1.989   0.726  1.00  0.00     0.135 A 
ATOM      9  C   UNL     1      -6.444   3.062   1.671  1.00  0.00     0.090 C 
ATOM     10  N   UNL     1      -5.996   1.010   0.205  1.00  0.00    -0.268 N 
ATOM     11  C   UNL     1      -4.644   0.708   0.338  1.00  0.00     0.114 A 
ATOM     12  S   UNL     1      -3.594   1.578   1.306  1.00  0.00    -0.097 S 
ATOM     13  C   UNL     1      -2.265   0.584   0.857  1.00  0.00     0.117 A 
ATOM     14  C   UNL     1      -2.657  -0.389  -0.068  1.00  0.00     0.076 A 
ATOM     15  C   UNL     1      -4.072  -0.352  -0.337  1.00  0.00     0.040 A 
ENDROOT
BRANCH  14  16
ATOM     16  N   UNL     1      -1.779  -1.258  -0.631  1.00  0.00    -0.396 N 
ATOM     17  H   UNL     1      -1.952  -1.669  -1.539  1.00  0.00     0.156 HD
ATOM     18  H   UNL     1      -0.769  -1.141  -0.510  1.00  0.00     0.156 HD
ENDBRANCH  14  16
BRANCH  13  19
ATOM     19  N   UNL     1      -1.035   0.859   1.400  1.00  0.00    -0.360 N 
ATOM     20  C   UNL     1      -0.227  -0.167   2.014  1.00  0.00     0.132 C 
ATOM     21  C   UNL     1       0.050   1.320   0.567  1.00  0.00     0.132 C 
ATOM     22  C   UNL     1       1.003   0.369   1.286  1.00  0.00     0.117 C 
BRANCH  22  23
ATOM     23  C   UNL     1       1.759  -0.638   0.391  1.00  0.00     0.226 C 
ATOM     24  O   UNL     1       1.216  -1.296  -0.502  1.00  0.00    -0.275 OA
ATOM     25  N   UNL     1       3.110  -0.742   0.653  1.00  0.00    -0.352 N 
ATOM     26  H   UNL     1       3.541  -0.050   1.255  1.00  0.00     0.163 HD
BRANCH  25  27
ATOM     27  C   UNL     1       4.004  -1.518  -0.216  1.00  0.00     0.090 C 
ATOM     28  C   UNL     1       5.329  -1.841   0.510  1.00  0.00     0.061 C 
ATOM     29  C   UNL     1       4.401  -0.704  -1.471  1.00  0.00     0.061 C 
ATOM     30  C   UNL     1       6.169  -0.657   0.135  1.00  0.00    -0.043 A 
ATOM     31  C   UNL     1       5.642  -0.011  -0.990  1.00  0.00    -0.043 A 
ATOM     32  C   UNL     1       7.340  -0.217   0.728  1.00  0.00     0.004 A 
ATOM     33  C   UNL     1       6.274   1.088  -1.545  1.00  0.00     0.004 A 
ATOM     34  C   UNL     1       7.977   0.899   0.183  1.00  0.00     0.000 A 
ATOM     35  C   UNL     1       7.449   1.547  -0.945  1.00  0.00     0.000 A 
ENDBRANCH  25  27
ENDBRANCH  22  23
ENDBRANCH  13  19
TORSDOF 4
