REMARK SMILES Cc1ccc(-c2sc3c(c(C)c(Cl)c4nncn43)c2N)c(C(=O)NC2CC2)n1
REMARK SMILES IDX 6 1 7 2 8 3 9 4 10 5 11 6 12 7 13 8 14 9 15 10 16 11 17 12
REMARK SMILES IDX 18 13 19 14 5 15 2 16 3 17 28 18 4 19 21 20 1 21 22 22 23 23
REMARK SMILES IDX 24 24 25 26 26 27 27 28 20 29
REMARK H PARENT 24 25 20 30 20 31
ROOT
ATOM      1  C   UNL     1      -0.811   0.906  -0.095  1.00  0.00     0.062 A 
ATOM      2  S   UNL     1      -1.208   1.177   1.556  1.00  0.00    -0.114 S 
ATOM      3  C   UNL     1      -2.656   0.364   1.359  1.00  0.00     0.112 A 
ATOM      4  C   UNL     1      -2.924  -0.099   0.089  1.00  0.00     0.038 A 
ATOM      5  C   UNL     1      -4.205  -0.767  -0.129  1.00  0.00    -0.016 C 
ATOM      6  C   UNL     1      -4.503  -1.184  -1.542  1.00  0.00     0.047 C 
ATOM      7  C   UNL     1      -5.070  -0.955   0.904  1.00  0.00     0.089 C 
ATOM      8  Cl  UNL     1      -6.602  -1.743   0.729  1.00  0.00    -0.080 Cl
ATOM      9  C   UNL     1      -4.752  -0.489   2.216  1.00  0.00     0.180 A 
ATOM     10  N   UNL     1      -5.393  -0.526   3.370  1.00  0.00    -0.129 NA
ATOM     11  N   UNL     1      -4.611   0.100   4.315  1.00  0.00    -0.138 NA
ATOM     12  C   UNL     1      -3.512   0.505   3.719  1.00  0.00     0.231 A 
ATOM     13  N   UNL     1      -3.547   0.166   2.396  1.00  0.00    -0.271 N 
ATOM     14  C   UNL     1      -1.808   0.203  -0.764  1.00  0.00     0.060 A 
ENDROOT
BRANCH   1  15
ATOM     15  C   UNL     1       0.463   1.425  -0.592  1.00  0.00     0.025 A 
ATOM     16  C   UNL     1       2.841   2.493  -1.546  1.00  0.00     0.038 A 
ATOM     17  C   UNL     1       1.680   3.250  -1.628  1.00  0.00     0.024 A 
ATOM     18  N   UNL     1       2.857   1.245  -1.024  1.00  0.00    -0.247 NA
ATOM     19  C   UNL     1       0.488   2.710  -1.149  1.00  0.00     0.014 A 
ATOM     20  C   UNL     1       1.673   0.727  -0.558  1.00  0.00     0.137 A 
ATOM     21  C   UNL     1       4.140   3.048  -2.050  1.00  0.00     0.067 C 
BRANCH  20  22
ATOM     22  C   UNL     1       1.805  -0.678  -0.018  1.00  0.00     0.270 C 
ATOM     23  O   UNL     1       0.855  -1.355   0.352  1.00  0.00    -0.267 OA
ATOM     24  N   UNL     1       3.114  -1.132   0.001  1.00  0.00    -0.348 N 
ATOM     25  H   UNL     1       3.813  -0.486  -0.360  1.00  0.00     0.164 HD
BRANCH  24  26
ATOM     26  C   UNL     1       3.492  -2.420   0.471  1.00  0.00     0.082 C 
ATOM     27  C   UNL     1       4.942  -2.776   0.650  1.00  0.00     0.027 C 
ATOM     28  C   UNL     1       4.064  -2.588   1.851  1.00  0.00     0.027 C 
ENDBRANCH  24  26
ENDBRANCH  20  22
ENDBRANCH   1  15
BRANCH  14  29
ATOM     29  N   UNL     1      -1.687  -0.139  -2.072  1.00  0.00    -0.397 N 
ATOM     30  H   UNL     1      -2.141  -0.985  -2.402  1.00  0.00     0.156 HD
ATOM     31  H   UNL     1      -0.773  -0.063  -2.513  1.00  0.00     0.156 HD
ENDBRANCH  14  29
TORSDOF 4
