REMARK SMILES Cc1c(Cl)c2nnc(C)n2c2sc(C(=O)NC(=O)C3Cc4ccccc4C3)c(N)c12
REMARK SMILES IDX 1 1 2 2 3 3 4 4 5 5 6 6 7 7 8 8 9 9 10 10 11 11 12 12 13 13
REMARK SMILES IDX 28 14 30 15 29 16 14 19 15 20 16 21 17 22 18 23 19 25 20 26
REMARK SMILES IDX 27 27 21 28 26 29 22 30 25 31 23 32 24 33
REMARK H PARENT 29 17 29 18 16 24
ROOT
ATOM      1  C   UNL     1      -5.516  -1.058  -2.995  1.00  0.00     0.047 C 
ATOM      2  C   UNL     1      -5.094  -0.764  -1.582  1.00  0.00    -0.016 C 
ATOM      3  C   UNL     1      -5.973  -0.646  -0.554  1.00  0.00     0.089 C 
ATOM      4  Cl  UNL     1      -7.681  -0.874  -0.734  1.00  0.00    -0.080 Cl
ATOM      5  C   UNL     1      -5.522  -0.312   0.758  1.00  0.00     0.181 A 
ATOM      6  N   UNL     1      -6.163  -0.147   1.895  1.00  0.00    -0.129 NA
ATOM      7  N   UNL     1      -5.250   0.189   2.856  1.00  0.00    -0.135 NA
ATOM      8  C   UNL     1      -4.055   0.228   2.303  1.00  0.00     0.135 A 
ATOM      9  C   UNL     1      -2.813   0.559   3.038  1.00  0.00     0.090 C 
ATOM     10  N   UNL     1      -4.164  -0.090   0.959  1.00  0.00    -0.268 N 
ATOM     11  C   UNL     1      -3.254  -0.215  -0.089  1.00  0.00     0.113 A 
ATOM     12  S   UNL     1      -1.608   0.046   0.070  1.00  0.00    -0.109 S 
ATOM     13  C   UNL     1      -1.331  -0.339  -1.581  1.00  0.00     0.118 A 
ATOM     14  C   UNL     1      -2.522  -0.667  -2.223  1.00  0.00     0.065 A 
ATOM     15  C   UNL     1      -3.666  -0.569  -1.358  1.00  0.00     0.038 A 
ENDROOT
BRANCH  14  16
ATOM     16  N   UNL     1      -2.540  -1.022  -3.529  1.00  0.00    -0.397 N 
ATOM     17  H   UNL     1      -1.642  -1.160  -4.010  1.00  0.00     0.156 HD
ATOM     18  H   UNL     1      -3.240  -1.649  -3.909  1.00  0.00     0.156 HD
ENDBRANCH  14  16
BRANCH  13  19
ATOM     19  C   UNL     1       0.020  -0.332  -2.153  1.00  0.00     0.270 C 
ATOM     20  O   UNL     1       0.244  -0.765  -3.281  1.00  0.00    -0.268 OA
ATOM     21  N   UNL     1       1.007   0.169  -1.316  1.00  0.00    -0.291 N 
ATOM     22  C   UNL     1       2.341   0.347  -1.643  1.00  0.00     0.230 C 
ATOM     23  O   UNL     1       2.824   0.187  -2.757  1.00  0.00    -0.274 OA
ATOM     24  H   UNL     1       0.700   0.468  -0.403  1.00  0.00     0.173 HD
BRANCH  22  25
ATOM     25  C   UNL     1       3.165   0.841  -0.465  1.00  0.00     0.087 C 
ATOM     26  C   UNL     1       4.650   1.062  -0.818  1.00  0.00     0.049 C 
ATOM     27  C   UNL     1       3.150  -0.153   0.714  1.00  0.00     0.049 C 
ATOM     28  C   UNL     1       5.302   0.847   0.512  1.00  0.00    -0.044 A 
ATOM     29  C   UNL     1       4.452   0.154   1.380  1.00  0.00    -0.044 A 
ATOM     30  C   UNL     1       6.582   1.204   0.900  1.00  0.00     0.004 A 
ATOM     31  C   UNL     1       4.864  -0.197   2.654  1.00  0.00     0.004 A 
ATOM     32  C   UNL     1       7.002   0.867   2.188  1.00  0.00     0.000 A 
ATOM     33  C   UNL     1       6.149   0.171   3.059  1.00  0.00     0.000 A 
ENDBRANCH  22  25
ENDBRANCH  13  19
TORSDOF 3
