REMARK SMILES Cc1ccc(-c2sc3c(c(C)c(Cl)c4nnc(C)n43)c2N)c(C(=O)NC2Cc3ccccc3C2)n1
REMARK SMILES IDX 6 1 7 2 8 3 9 4 10 5 11 6 12 7 13 8 14 9 15 10 16 11 17 12
REMARK SMILES IDX 18 13 19 14 20 15 5 16 2 17 3 18 35 19 4 20 22 21 1 22 23 23
REMARK SMILES IDX 24 24 25 25 26 27 27 28 34 29 28 30 33 31 29 32 32 33 30 34
REMARK SMILES IDX 31 35 21 36
REMARK H PARENT 25 26 21 37 21 38
ROOT
ATOM      1  C   UNL     1      -2.160   0.811  -0.771  1.00  0.00     0.062 A 
ATOM      2  S   UNL     1      -2.581  -0.747  -1.349  1.00  0.00    -0.114 S 
ATOM      3  C   UNL     1      -3.647  -0.975  -0.077  1.00  0.00     0.113 A 
ATOM      4  C   UNL     1      -3.766   0.099   0.784  1.00  0.00     0.038 A 
ATOM      5  C   UNL     1      -4.728  -0.007   1.874  1.00  0.00    -0.016 C 
ATOM      6  C   UNL     1      -4.907   1.216   2.731  1.00  0.00     0.047 C 
ATOM      7  C   UNL     1      -5.438  -1.150   2.055  1.00  0.00     0.089 C 
ATOM      8  Cl  UNL     1      -6.592  -1.359   3.331  1.00  0.00    -0.080 Cl
ATOM      9  C   UNL     1      -5.272  -2.261   1.174  1.00  0.00     0.181 A 
ATOM     10  N   UNL     1      -5.840  -3.448   1.138  1.00  0.00    -0.129 NA
ATOM     11  N   UNL     1      -5.330  -4.131   0.068  1.00  0.00    -0.135 NA
ATOM     12  C   UNL     1      -4.453  -3.359  -0.543  1.00  0.00     0.135 A 
ATOM     13  C   UNL     1      -3.681  -3.766  -1.739  1.00  0.00     0.090 C 
ATOM     14  N   UNL     1      -4.378  -2.143   0.116  1.00  0.00    -0.268 N 
ATOM     15  C   UNL     1      -2.855   1.138   0.386  1.00  0.00     0.060 A 
ENDROOT
BRANCH   1  16
ATOM     16  C   UNL     1      -1.170   1.582  -1.520  1.00  0.00     0.025 A 
ATOM     17  C   UNL     1       0.643   3.094  -2.982  1.00  0.00     0.038 A 
ATOM     18  C   UNL     1      -0.705   3.157  -3.307  1.00  0.00     0.024 A 
ATOM     19  N   UNL     1       1.109   2.326  -1.971  1.00  0.00    -0.247 NA
ATOM     20  C   UNL     1      -1.613   2.398  -2.570  1.00  0.00     0.014 A 
ATOM     21  C   UNL     1       0.201   1.584  -1.255  1.00  0.00     0.137 A 
ATOM     22  C   UNL     1       1.644   3.897  -3.758  1.00  0.00     0.067 C 
BRANCH  21  23
ATOM     23  C   UNL     1       0.835   0.771  -0.148  1.00  0.00     0.270 C 
ATOM     24  O   UNL     1       0.216   0.004   0.577  1.00  0.00    -0.267 OA
ATOM     25  N   UNL     1       2.199   0.966  -0.034  1.00  0.00    -0.347 N 
ATOM     26  H   UNL     1       2.619   1.510  -0.785  1.00  0.00     0.164 HD
BRANCH  25  27
ATOM     27  C   UNL     1       3.028   0.144   0.828  1.00  0.00     0.091 C 
ATOM     28  C   UNL     1       4.425   0.756   1.067  1.00  0.00     0.061 C 
ATOM     29  C   UNL     1       3.263  -1.275   0.260  1.00  0.00     0.061 C 
ATOM     30  C   UNL     1       5.257  -0.467   1.299  1.00  0.00    -0.043 A 
ATOM     31  C   UNL     1       4.600  -1.614   0.843  1.00  0.00    -0.043 A 
ATOM     32  C   UNL     1       6.528  -0.540   1.843  1.00  0.00     0.004 A 
ATOM     33  C   UNL     1       5.200  -2.860   0.921  1.00  0.00     0.004 A 
ATOM     34  C   UNL     1       7.137  -1.794   1.936  1.00  0.00     0.000 A 
ATOM     35  C   UNL     1       6.478  -2.945   1.478  1.00  0.00     0.000 A 
ENDBRANCH  25  27
ENDBRANCH  21  23
ENDBRANCH   1  16
BRANCH  15  36
ATOM     36  N   UNL     1      -2.654   2.317   1.030  1.00  0.00    -0.397 N 
ATOM     37  H   UNL     1      -1.849   2.884   0.771  1.00  0.00     0.156 HD
ATOM     38  H   UNL     1      -2.768   2.349   2.038  1.00  0.00     0.156 HD
ENDBRANCH  15  36
TORSDOF 4
