REMARK SMILES Cc1c(Cl)c2nnc(C)n2c2sc(-c3cncc(C(=O)NC4Cc5ccccc5C4)c3)c(N)c12
REMARK SMILES IDX 1 1 2 2 3 3 4 4 5 5 6 6 7 7 8 8 9 9 10 10 11 11 12 12 13 13
REMARK SMILES IDX 32 14 34 15 33 16 14 19 15 20 31 21 16 22 18 23 17 24 19 25
REMARK SMILES IDX 20 26 21 27 22 29 23 30 30 31 24 32 29 33 25 34 28 35 26 36
REMARK SMILES IDX 27 37
REMARK H PARENT 33 17 33 18 21 28
ROOT
ATOM      1  C   UNL     1      -4.822   3.109  -2.263  1.00  0.00     0.047 C 
ATOM      2  C   UNL     1      -5.446   1.884  -1.654  1.00  0.00    -0.016 C 
ATOM      3  C   UNL     1      -6.709   1.477  -1.939  1.00  0.00     0.089 C 
ATOM      4  Cl  UNL     1      -7.777   2.357  -2.982  1.00  0.00    -0.080 Cl
ATOM      5  C   UNL     1      -7.230   0.269  -1.386  1.00  0.00     0.181 A 
ATOM      6  N   UNL     1      -8.402  -0.319  -1.503  1.00  0.00    -0.129 NA
ATOM      7  N   UNL     1      -8.370  -1.480  -0.781  1.00  0.00    -0.135 NA
ATOM      8  C   UNL     1      -7.179  -1.596  -0.226  1.00  0.00     0.135 A 
ATOM      9  C   UNL     1      -6.769  -2.735   0.626  1.00  0.00     0.090 C 
ATOM     10  N   UNL     1      -6.407  -0.498  -0.570  1.00  0.00    -0.268 N 
ATOM     11  C   UNL     1      -5.114  -0.082  -0.264  1.00  0.00     0.113 A 
ATOM     12  S   UNL     1      -4.068  -0.951   0.713  1.00  0.00    -0.114 S 
ATOM     13  C   UNL     1      -2.848   0.244   0.552  1.00  0.00     0.062 A 
ATOM     14  C   UNL     1      -3.277   1.308  -0.234  1.00  0.00     0.060 A 
ATOM     15  C   UNL     1      -4.602   1.103  -0.757  1.00  0.00     0.038 A 
ENDROOT
BRANCH  14  16
ATOM     16  N   UNL     1      -2.494   2.393  -0.446  1.00  0.00    -0.397 N 
ATOM     17  H   UNL     1      -1.643   2.523   0.098  1.00  0.00     0.156 HD
ATOM     18  H   UNL     1      -2.886   3.288  -0.712  1.00  0.00     0.156 HD
ENDBRANCH  14  16
BRANCH  13  19
ATOM     19  C   UNL     1      -1.560   0.023   1.213  1.00  0.00     0.013 A 
ATOM     20  C   UNL     1      -1.456  -0.111   2.596  1.00  0.00     0.120 A 
ATOM     21  C   UNL     1      -0.376  -0.050   0.471  1.00  0.00     0.026 A 
ATOM     22  N   UNL     1      -0.291  -0.319   3.258  1.00  0.00    -0.263 NA
ATOM     23  C   UNL     1       0.845  -0.254   1.122  1.00  0.00     0.058 A 
ATOM     24  C   UNL     1       0.830  -0.402   2.502  1.00  0.00     0.124 A 
BRANCH  23  25
ATOM     25  C   UNL     1       2.091  -0.342   0.327  1.00  0.00     0.253 C 
ATOM     26  O   UNL     1       2.035  -0.673  -0.851  1.00  0.00    -0.269 OA
ATOM     27  N   UNL     1       3.267  -0.001   0.966  1.00  0.00    -0.349 N 
ATOM     28  H   UNL     1       3.219   0.516   1.834  1.00  0.00     0.164 HD
BRANCH  27  29
ATOM     29  C   UNL     1       4.526   0.047   0.231  1.00  0.00     0.091 C 
ATOM     30  C   UNL     1       5.693   0.577   1.096  1.00  0.00     0.061 C 
ATOM     31  C   UNL     1       4.984  -1.333  -0.303  1.00  0.00     0.061 C 
ATOM     32  C   UNL     1       6.873  -0.087   0.463  1.00  0.00    -0.043 A 
ATOM     33  C   UNL     1       6.473  -1.169  -0.327  1.00  0.00    -0.043 A 
ATOM     34  C   UNL     1       8.213   0.227   0.618  1.00  0.00     0.004 A 
ATOM     35  C   UNL     1       7.403  -1.960  -0.979  1.00  0.00     0.004 A 
ATOM     36  C   UNL     1       9.158  -0.558  -0.046  1.00  0.00     0.000 A 
ATOM     37  C   UNL     1       8.756  -1.644  -0.839  1.00  0.00     0.000 A 
ENDBRANCH  27  29
ENDBRANCH  23  25
ENDBRANCH  13  19
TORSDOF 4
