REMARK SMILES Cc1c(Cl)c2nncn2c2sc(N3CC(NC(=O)c4ccncc4Cl)C3)c(N)c12
REMARK SMILES IDX 13 1 14 2 15 3 26 4 12 5 2 6 3 7 29 8 5 9 27 10 10 11 6 12
REMARK SMILES IDX 9 13 11 14 7 15 8 16 1 17 4 18 28 19 16 22 17 23 18 24 19 26
REMARK SMILES IDX 20 27 24 28 21 29 23 30 22 31 25 32
REMARK H PARENT 28 20 28 21 16 25
ROOT
ATOM      1  N   UNL     1      -0.104   0.019   1.210  1.00  0.00    -0.357 N 
ATOM      2  C   UNL     1       0.852  -1.053   1.031  1.00  0.00     0.144 C 
ATOM      3  C   UNL     1       1.952  -0.021   1.330  1.00  0.00     0.121 C 
ATOM      4  C   UNL     1       0.896   1.014   0.904  1.00  0.00     0.144 C 
ENDROOT
BRANCH   1   5
ATOM      5  C   UNL     1      -1.383   0.036   0.715  1.00  0.00     0.117 A 
ATOM      6  C   UNL     1      -4.680   1.609  -0.338  1.00  0.00    -0.016 C 
ATOM      7  C   UNL     1      -5.759   1.023  -0.923  1.00  0.00     0.089 C 
ATOM      8  C   UNL     1      -3.508   0.815   0.017  1.00  0.00     0.040 A 
ATOM      9  C   UNL     1      -5.758  -0.374  -1.218  1.00  0.00     0.180 A 
ATOM     10  C   UNL     1      -2.275   1.115   0.690  1.00  0.00     0.076 A 
ATOM     11  C   UNL     1      -3.521  -0.520  -0.308  1.00  0.00     0.114 A 
ATOM     12  N   UNL     1      -6.644  -1.184  -1.767  1.00  0.00    -0.129 NA
ATOM     13  N   UNL     1      -4.622  -1.101  -0.908  1.00  0.00    -0.271 N 
ATOM     14  S   UNL     1      -2.146  -1.383   0.082  1.00  0.00    -0.097 S 
ATOM     15  N   UNL     1      -6.095  -2.446  -1.822  1.00  0.00    -0.138 NA
ATOM     16  C   UNL     1      -4.889  -2.380  -1.307  1.00  0.00     0.231 A 
ATOM     17  C   UNL     1      -4.587   3.087  -0.072  1.00  0.00     0.047 C 
ATOM     18  Cl  UNL     1      -7.189   1.893  -1.365  1.00  0.00    -0.080 Cl
BRANCH  10  19
ATOM     19  N   UNL     1      -1.969   2.304   1.276  1.00  0.00    -0.396 N 
ATOM     20  H   UNL     1      -2.719   2.890   1.628  1.00  0.00     0.156 HD
ATOM     21  H   UNL     1      -1.215   2.282   1.961  1.00  0.00     0.156 HD
ENDBRANCH  10  19
ENDBRANCH   1   5
BRANCH   3  22
ATOM     22  N   UNL     1       3.152  -0.086   0.463  1.00  0.00    -0.346 N 
ATOM     23  C   UNL     1       4.006  -1.166   0.493  1.00  0.00     0.253 C 
ATOM     24  O   UNL     1       3.787  -2.149   1.195  1.00  0.00    -0.269 OA
ATOM     25  H   UNL     1       3.394   0.708  -0.120  1.00  0.00     0.164 HD
BRANCH  23  26
ATOM     26  C   UNL     1       5.201  -1.150  -0.399  1.00  0.00     0.061 A 
ATOM     27  C   UNL     1       5.726  -2.409  -0.733  1.00  0.00     0.035 A 
ATOM     28  C   UNL     1       5.828  -0.007  -0.901  1.00  0.00     0.072 A 
ATOM     29  C   UNL     1       6.832  -2.479  -1.560  1.00  0.00     0.112 A 
ATOM     30  C   UNL     1       6.934  -0.188  -1.724  1.00  0.00     0.132 A 
ATOM     31  N   UNL     1       7.445  -1.394  -2.069  1.00  0.00    -0.263 NA
ATOM     32  Cl  UNL     1       5.354   1.613  -0.552  1.00  0.00    -0.082 Cl
ENDBRANCH  23  26
ENDBRANCH   3  22
TORSDOF 4
