REMARK SMILES Cc1c(Cl)c2nnc(C)n2c2sc(C(=O)Nc3cncc(C4CC4)c3)c(N)c12
REMARK SMILES IDX 1 1 2 2 3 3 4 4 5 5 6 6 7 7 8 8 9 9 10 10 11 11 12 12 13 13
REMARK SMILES IDX 26 14 28 15 27 16 14 19 15 20 16 21 17 23 18 24 25 25 19 26
REMARK SMILES IDX 21 27 20 28 22 29 23 30 24 31
REMARK H PARENT 27 17 27 18 16 22
ROOT
ATOM      1  C   UNL     1      -4.060  -3.514  -0.172  1.00  0.00     0.047 C 
ATOM      2  C   UNL     1      -4.283  -2.028  -0.105  1.00  0.00    -0.016 C 
ATOM      3  C   UNL     1      -5.514  -1.458  -0.167  1.00  0.00     0.089 C 
ATOM      4  Cl  UNL     1      -6.980  -2.375  -0.271  1.00  0.00    -0.080 Cl
ATOM      5  C   UNL     1      -5.663  -0.039  -0.158  1.00  0.00     0.181 A 
ATOM      6  N   UNL     1      -6.726   0.736  -0.203  1.00  0.00    -0.129 NA
ATOM      7  N   UNL     1      -6.307   2.037  -0.186  1.00  0.00    -0.135 NA
ATOM      8  C   UNL     1      -4.990   2.053  -0.130  1.00  0.00     0.135 A 
ATOM      9  C   UNL     1      -4.178   3.289  -0.096  1.00  0.00     0.090 C 
ATOM     10  N   UNL     1      -4.520   0.750  -0.104  1.00  0.00    -0.268 N 
ATOM     11  C   UNL     1      -3.253   0.174  -0.035  1.00  0.00     0.113 A 
ATOM     12  S   UNL     1      -1.831   1.055   0.021  1.00  0.00    -0.109 S 
ATOM     13  C   UNL     1      -0.883  -0.375   0.118  1.00  0.00     0.118 A 
ATOM     14  C   UNL     1      -1.691  -1.509   0.112  1.00  0.00     0.065 A 
ATOM     15  C   UNL     1      -3.089  -1.197  -0.009  1.00  0.00     0.038 A 
ENDROOT
BRANCH  14  16
ATOM     16  N   UNL     1      -1.161  -2.752   0.204  1.00  0.00    -0.397 N 
ATOM     17  H   UNL     1      -1.667  -3.517   0.635  1.00  0.00     0.156 HD
ATOM     18  H   UNL     1      -0.156  -2.835   0.399  1.00  0.00     0.156 HD
ENDBRANCH  14  16
BRANCH  13  19
ATOM     19  C   UNL     1       0.581  -0.318   0.227  1.00  0.00     0.267 C 
ATOM     20  O   UNL     1       1.246  -1.328   0.447  1.00  0.00    -0.268 OA
ATOM     21  N   UNL     1       1.128   0.946   0.064  1.00  0.00    -0.320 N 
ATOM     22  H   UNL     1       0.463   1.687  -0.120  1.00  0.00     0.170 HD
BRANCH  21  23
ATOM     23  C   UNL     1       2.487   1.323   0.114  1.00  0.00     0.060 A 
ATOM     24  C   UNL     1       2.810   2.663  -0.088  1.00  0.00     0.137 A 
ATOM     25  C   UNL     1       3.548   0.451   0.355  1.00  0.00     0.033 A 
ATOM     26  N   UNL     1       4.064   3.165  -0.063  1.00  0.00    -0.262 NA
ATOM     27  C   UNL     1       4.877   0.909   0.382  1.00  0.00    -0.024 A 
ATOM     28  C   UNL     1       5.057   2.277   0.172  1.00  0.00     0.115 A 
BRANCH  27  29
ATOM     29  C   UNL     1       6.035  -0.017   0.657  1.00  0.00     0.021 C 
ATOM     30  C   UNL     1       6.223  -1.264  -0.175  1.00  0.00     0.009 C 
ATOM     31  C   UNL     1       7.175  -0.118  -0.330  1.00  0.00     0.009 C 
ENDBRANCH  27  29
ENDBRANCH  21  23
ENDBRANCH  13  19
TORSDOF 4
