REMARK SMILES Cc1c(Cl)c2nnc(C)n2c2sc(C(=O)Nc3cc(C4CC4)ncc3Cl)c(N)c12
REMARK SMILES IDX 1 1 2 2 3 3 4 4 5 5 6 6 7 7 8 8 9 9 10 10 11 11 12 12 13 13
REMARK SMILES IDX 27 14 29 15 28 16 14 19 15 20 16 21 17 23 18 24 25 25 19 26
REMARK SMILES IDX 24 27 23 28 26 29 20 30 21 31 22 32
REMARK H PARENT 28 17 28 18 16 22
ROOT
ATOM      1  C   UNL     1      -4.185   1.289   3.149  1.00  0.00     0.047 C 
ATOM      2  C   UNL     1      -4.330   0.901   1.703  1.00  0.00    -0.016 C 
ATOM      3  C   UNL     1      -5.518   0.919   1.046  1.00  0.00     0.089 C 
ATOM      4  Cl  UNL     1      -7.018   1.332   1.806  1.00  0.00    -0.080 Cl
ATOM      5  C   UNL     1      -5.588   0.596  -0.343  1.00  0.00     0.181 A 
ATOM      6  N   UNL     1      -6.600   0.539  -1.183  1.00  0.00    -0.129 NA
ATOM      7  N   UNL     1      -6.112   0.197  -2.414  1.00  0.00    -0.135 NA
ATOM      8  C   UNL     1      -4.806   0.047  -2.321  1.00  0.00     0.135 A 
ATOM      9  C   UNL     1      -3.931  -0.323  -3.457  1.00  0.00     0.090 C 
ATOM     10  N   UNL     1      -4.412   0.284  -1.015  1.00  0.00    -0.268 N 
ATOM     11  C   UNL     1      -3.190   0.258  -0.346  1.00  0.00     0.113 A 
ATOM     12  S   UNL     1      -1.733  -0.099  -1.086  1.00  0.00    -0.109 S 
ATOM     13  C   UNL     1      -0.876   0.066   0.394  1.00  0.00     0.118 A 
ATOM     14  C   UNL     1      -1.741   0.389   1.437  1.00  0.00     0.065 A 
ATOM     15  C   UNL     1      -3.104   0.534   1.004  1.00  0.00     0.038 A 
ENDROOT
BRANCH  14  16
ATOM     16  N   UNL     1      -1.289   0.547   2.703  1.00  0.00    -0.397 N 
ATOM     17  H   UNL     1      -0.310   0.308   2.902  1.00  0.00     0.156 HD
ATOM     18  H   UNL     1      -1.871   0.346   3.508  1.00  0.00     0.156 HD
ENDBRANCH  14  16
BRANCH  13  19
ATOM     19  C   UNL     1       0.574  -0.154   0.466  1.00  0.00     0.267 C 
ATOM     20  O   UNL     1       1.170  -0.173   1.542  1.00  0.00    -0.268 OA
ATOM     21  N   UNL     1       1.196  -0.337  -0.758  1.00  0.00    -0.320 N 
ATOM     22  H   UNL     1       0.591  -0.299  -1.573  1.00  0.00     0.170 HD
BRANCH  21  23
ATOM     23  C   UNL     1       2.565  -0.569  -1.036  1.00  0.00     0.063 A 
ATOM     24  C   UNL     1       3.552  -0.649  -0.052  1.00  0.00     0.051 A 
ATOM     25  C   UNL     1       2.952  -0.727  -2.371  1.00  0.00     0.082 A 
ATOM     26  C   UNL     1       4.887  -0.877  -0.405  1.00  0.00     0.046 A 
ATOM     27  C   UNL     1       4.287  -0.956  -2.649  1.00  0.00     0.134 A 
ATOM     28  N   UNL     1       5.250  -1.035  -1.702  1.00  0.00    -0.259 NA
ATOM     29  Cl  UNL     1       1.814  -0.648  -3.666  1.00  0.00    -0.080 Cl
BRANCH  26  30
ATOM     30  C   UNL     1       5.956  -0.972   0.657  1.00  0.00     0.038 C 
ATOM     31  C   UNL     1       6.288   0.231   1.511  1.00  0.00     0.010 C 
ATOM     32  C   UNL     1       7.266  -0.239   0.477  1.00  0.00     0.010 C 
ENDBRANCH  26  30
ENDBRANCH  21  23
ENDBRANCH  13  19
TORSDOF 4
