REMARK SMILES Cc1ccc(-c2sc3c(c(C)c(Cl)c4nncn43)c2N)c(NC(=O)C2Cc3ccccc3C2)n1
REMARK SMILES IDX 6 1 7 2 8 3 9 4 10 5 11 6 12 7 13 8 14 9 15 10 16 11 17 12
REMARK SMILES IDX 18 13 19 14 5 15 2 16 3 17 34 18 4 19 21 20 1 21 22 22 23 23
REMARK SMILES IDX 24 24 25 26 26 27 33 28 27 29 32 30 28 31 31 32 29 33 30 34
REMARK SMILES IDX 20 35
REMARK H PARENT 22 25 20 36 20 37
ROOT
ATOM      1  C   UNL     1       1.388  -1.245  -1.628  1.00  0.00     0.064 A 
ATOM      2  S   UNL     1       1.392  -0.605  -3.230  1.00  0.00    -0.114 S 
ATOM      3  C   UNL     1       2.313   0.699  -2.737  1.00  0.00     0.112 A 
ATOM      4  C   UNL     1       2.638   0.741  -1.400  1.00  0.00     0.038 A 
ATOM      5  C   UNL     1       3.399   1.895  -0.927  1.00  0.00    -0.016 C 
ATOM      6  C   UNL     1       3.659   1.960   0.553  1.00  0.00     0.047 C 
ATOM      7  C   UNL     1       3.804   2.859  -1.797  1.00  0.00     0.089 C 
ATOM      8  Cl  UNL     1       4.717   4.250  -1.318  1.00  0.00    -0.080 Cl
ATOM      9  C   UNL     1       3.480   2.771  -3.185  1.00  0.00     0.180 A 
ATOM     10  N   UNL     1       3.739   3.541  -4.225  1.00  0.00    -0.129 NA
ATOM     11  N   UNL     1       3.154   2.973  -5.335  1.00  0.00    -0.138 NA
ATOM     12  C   UNL     1       2.553   1.871  -4.950  1.00  0.00     0.231 A 
ATOM     13  N   UNL     1       2.728   1.690  -3.608  1.00  0.00    -0.271 N 
ATOM     14  C   UNL     1       2.116  -0.434  -0.757  1.00  0.00     0.060 A 
ENDROOT
BRANCH   1  15
ATOM     15  C   UNL     1       0.642  -2.492  -1.367  1.00  0.00     0.037 A 
ATOM     16  C   UNL     1      -0.742  -4.836  -0.918  1.00  0.00     0.040 A 
ATOM     17  C   UNL     1       0.255  -4.829  -1.879  1.00  0.00     0.024 A 
ATOM     18  N   UNL     1      -1.051  -3.742  -0.189  1.00  0.00    -0.235 NA
ATOM     19  C   UNL     1       0.952  -3.646  -2.102  1.00  0.00     0.015 A 
ATOM     20  C   UNL     1      -0.378  -2.592  -0.400  1.00  0.00     0.141 A 
ATOM     21  C   UNL     1      -1.526  -6.085  -0.644  1.00  0.00     0.067 C 
BRANCH  20  22
ATOM     22  N   UNL     1      -0.705  -1.465   0.380  1.00  0.00    -0.310 N 
ATOM     23  C   UNL     1      -1.663  -1.405   1.375  1.00  0.00     0.229 C 
ATOM     24  O   UNL     1      -2.382  -2.319   1.761  1.00  0.00    -0.274 OA
ATOM     25  H   UNL     1      -0.125  -0.649   0.245  1.00  0.00     0.171 HD
BRANCH  23  26
ATOM     26  C   UNL     1      -1.711  -0.028   2.023  1.00  0.00     0.087 C 
ATOM     27  C   UNL     1      -2.039   1.088   1.011  1.00  0.00     0.049 C 
ATOM     28  C   UNL     1      -2.775   0.080   3.135  1.00  0.00     0.049 C 
ATOM     29  C   UNL     1      -2.675   2.115   1.893  1.00  0.00    -0.044 A 
ATOM     30  C   UNL     1      -3.088   1.544   3.101  1.00  0.00    -0.044 A 
ATOM     31  C   UNL     1      -2.902   3.453   1.620  1.00  0.00     0.004 A 
ATOM     32  C   UNL     1      -3.739   2.298   4.062  1.00  0.00     0.004 A 
ATOM     33  C   UNL     1      -3.547   4.225   2.589  1.00  0.00     0.000 A 
ATOM     34  C   UNL     1      -3.962   3.652   3.802  1.00  0.00     0.000 A 
ENDBRANCH  23  26
ENDBRANCH  20  22
ENDBRANCH   1  15
BRANCH  14  35
ATOM     35  N   UNL     1       2.255  -0.754   0.554  1.00  0.00    -0.397 N 
ATOM     36  H   UNL     1       2.059  -1.710   0.856  1.00  0.00     0.156 HD
ATOM     37  H   UNL     1       3.049  -0.403   1.083  1.00  0.00     0.156 HD
ENDBRANCH  14  35
TORSDOF 4
