REMARK SMILES Cc1c(Cl)c2nncn2c2sc(-c3cc4ccc(C(=O)NC5CC5)cc4nn3)c(N)c12
REMARK SMILES IDX 1 1 2 2 3 3 4 4 5 5 6 6 7 7 8 8 9 9 10 10 11 11 12 12 29 13
REMARK SMILES IDX 31 14 30 15 13 18 14 19 28 20 15 21 27 22 16 23 26 24 17 25
REMARK SMILES IDX 25 26 18 27 19 28 20 29 21 30 22 32 23 33 24 34
REMARK H PARENT 30 16 30 17 21 31
ROOT
ATOM      1  C   UNL     1      -6.155  -1.638   0.427  1.00  0.00     0.047 C 
ATOM      2  C   UNL     1      -6.012  -0.160   0.187  1.00  0.00    -0.016 C 
ATOM      3  C   UNL     1      -7.074   0.688   0.116  1.00  0.00     0.089 C 
ATOM      4  Cl  UNL     1      -8.720   0.160   0.227  1.00  0.00    -0.080 Cl
ATOM      5  C   UNL     1      -6.877   2.093  -0.047  1.00  0.00     0.180 A 
ATOM      6  N   UNL     1      -7.703   3.117  -0.143  1.00  0.00    -0.129 NA
ATOM      7  N   UNL     1      -6.951   4.264  -0.268  1.00  0.00    -0.138 NA
ATOM      8  C   UNL     1      -5.684   3.915  -0.247  1.00  0.00     0.231 A 
ATOM      9  N   UNL     1      -5.576   2.560  -0.111  1.00  0.00    -0.271 N 
ATOM     10  C   UNL     1      -4.487   1.711  -0.046  1.00  0.00     0.113 A 
ATOM     11  S   UNL     1      -2.911   2.263  -0.114  1.00  0.00    -0.113 S 
ATOM     12  C   UNL     1      -2.313   0.651   0.005  1.00  0.00     0.080 A 
ATOM     13  C   UNL     1      -3.352  -0.277   0.054  1.00  0.00     0.062 A 
ATOM     14  C   UNL     1      -4.647   0.349   0.078  1.00  0.00     0.038 A 
ENDROOT
BRANCH  13  15
ATOM     15  N   UNL     1      -3.121  -1.616   0.067  1.00  0.00    -0.397 N 
ATOM     16  H   UNL     1      -2.211  -1.964  -0.232  1.00  0.00     0.156 HD
ATOM     17  H   UNL     1      -3.840  -2.257  -0.251  1.00  0.00     0.156 HD
ENDBRANCH  13  15
BRANCH  12  18
ATOM     18  C   UNL     1      -0.866   0.451   0.052  1.00  0.00     0.106 A 
ATOM     19  C   UNL     1      -0.252  -0.295   1.043  1.00  0.00     0.042 A 
ATOM     20  N   UNL     1      -0.151   1.022  -0.939  1.00  0.00    -0.149 NA
ATOM     21  C   UNL     1       1.138  -0.450   1.011  1.00  0.00     0.004 A 
ATOM     22  N   UNL     1       1.217   0.873  -0.973  1.00  0.00    -0.150 NA
ATOM     23  C   UNL     1       1.819  -1.187   1.993  1.00  0.00     0.011 A 
ATOM     24  C   UNL     1       1.856   0.162  -0.033  1.00  0.00     0.094 A 
ATOM     25  C   UNL     1       3.205  -1.321   1.932  1.00  0.00     0.014 A 
ATOM     26  C   UNL     1       3.237   0.021  -0.078  1.00  0.00     0.044 A 
ATOM     27  C   UNL     1       3.920  -0.727   0.888  1.00  0.00     0.042 A 
BRANCH  27  28
ATOM     28  C   UNL     1       5.400  -0.890   0.864  1.00  0.00     0.251 C 
ATOM     29  O   UNL     1       6.002  -1.100   1.911  1.00  0.00    -0.269 OA
ATOM     30  N   UNL     1       6.007  -0.824  -0.376  1.00  0.00    -0.349 N 
ATOM     31  H   UNL     1       5.441  -0.818  -1.214  1.00  0.00     0.164 HD
BRANCH  30  32
ATOM     32  C   UNL     1       7.418  -0.991  -0.533  1.00  0.00     0.082 C 
ATOM     33  C   UNL     1       8.316   0.209  -0.644  1.00  0.00     0.027 C 
ATOM     34  C   UNL     1       8.087  -0.666  -1.841  1.00  0.00     0.027 C 
ENDBRANCH  30  32
ENDBRANCH  27  28
ENDBRANCH  12  18
TORSDOF 4
