REMARK SMILES Cc1c(Cl)c2nncn2c2sc(NC(=O)C3C[NH+](C4Cc5ccccc5C4)C3)c(N)c12
REMARK SMILES IDX 1 1 2 2 3 3 4 4 5 5 6 6 7 7 8 8 9 9 10 10 11 11 12 12 29 13
REMARK SMILES IDX 31 14 30 15 13 18 14 19 15 20 16 22 17 23 28 24 18 25 19 27
REMARK SMILES IDX 20 28 27 29 21 30 26 31 22 32 25 33 23 34 24 35
REMARK H PARENT 30 16 30 17 13 21 18 26
ROOT
ATOM      1  C   UNL     1      -6.925   1.135  -1.716  1.00  0.00     0.047 C 
ATOM      2  C   UNL     1      -6.642   0.352  -0.464  1.00  0.00    -0.016 C 
ATOM      3  C   UNL     1      -7.616  -0.261   0.263  1.00  0.00     0.089 C 
ATOM      4  Cl  UNL     1      -9.298  -0.171  -0.134  1.00  0.00    -0.080 Cl
ATOM      5  C   UNL     1      -7.286  -1.037   1.416  1.00  0.00     0.180 A 
ATOM      6  N   UNL     1      -8.008  -1.721   2.282  1.00  0.00    -0.129 NA
ATOM      7  N   UNL     1      -7.152  -2.294   3.197  1.00  0.00    -0.138 NA
ATOM      8  C   UNL     1      -5.928  -1.946   2.870  1.00  0.00     0.231 A 
ATOM      9  N   UNL     1      -5.952  -1.154   1.758  1.00  0.00    -0.271 N 
ATOM     10  C   UNL     1      -4.952  -0.533   1.033  1.00  0.00     0.114 A 
ATOM     11  S   UNL     1      -3.334  -0.666   1.431  1.00  0.00    -0.097 S 
ATOM     12  C   UNL     1      -2.901   0.324   0.119  1.00  0.00     0.121 A 
ATOM     13  C   UNL     1      -4.012   0.800  -0.571  1.00  0.00     0.077 A 
ATOM     14  C   UNL     1      -5.240   0.242  -0.070  1.00  0.00     0.040 A 
ENDROOT
BRANCH  13  15
ATOM     15  N   UNL     1      -3.876   1.682  -1.599  1.00  0.00    -0.396 N 
ATOM     16  H   UNL     1      -4.706   2.119  -1.989  1.00  0.00     0.156 HD
ATOM     17  H   UNL     1      -3.157   2.398  -1.527  1.00  0.00     0.156 HD
ENDBRANCH  13  15
BRANCH  12  18
ATOM     18  N   UNL     1      -1.577   0.573  -0.220  1.00  0.00    -0.315 N 
ATOM     19  C   UNL     1      -0.454   0.138   0.461  1.00  0.00     0.239 C 
ATOM     20  O   UNL     1      -0.436  -0.448   1.545  1.00  0.00    -0.274 OA
ATOM     21  H   UNL     1      -1.480   1.063  -1.101  1.00  0.00     0.170 HD
BRANCH  19  22
ATOM     22  C   UNL     1       0.874   0.447  -0.245  1.00  0.00     0.188 C 
ATOM     23  C   UNL     1       1.811  -0.751  -0.454  1.00  0.00     0.282 C 
ATOM     24  C   UNL     1       1.985   1.034   0.637  1.00  0.00     0.282 C 
ATOM     25  N   UNL     1       2.921  -0.008   0.172  1.00  0.00    -0.330 N 
ATOM     26  H   UNL     1       3.378  -0.524   0.943  1.00  0.00     0.348 HD
BRANCH  25  27
ATOM     27  C   UNL     1       3.929   0.511  -0.840  1.00  0.00     0.192 C 
ATOM     28  C   UNL     1       4.760  -0.677  -1.394  1.00  0.00     0.101 C 
ATOM     29  C   UNL     1       4.965   1.414  -0.117  1.00  0.00     0.101 C 
ATOM     30  C   UNL     1       5.837  -0.792  -0.360  1.00  0.00    -0.039 A 
ATOM     31  C   UNL     1       5.954   0.399   0.367  1.00  0.00    -0.039 A 
ATOM     32  C   UNL     1       6.677  -1.864  -0.117  1.00  0.00     0.004 A 
ATOM     33  C   UNL     1       6.913   0.543   1.354  1.00  0.00     0.004 A 
ATOM     34  C   UNL     1       7.637  -1.733   0.887  1.00  0.00     0.000 A 
ATOM     35  C   UNL     1       7.754  -0.539   1.617  1.00  0.00     0.000 A 
ENDBRANCH  25  27
ENDBRANCH  19  22
ENDBRANCH  12  18
TORSDOF 4
