REMARK SMILES Cc1c(Cl)c2nnc(C)n2c2sc(-c3cc4ccc(C(=O)NC5Cc6ccccc6C5)cc4nn3)c(N)c12
REMARK SMILES IDX 1 1 2 2 3 3 4 4 5 5 6 6 7 7 8 8 9 9 10 10 11 11 12 12 13 13
REMARK SMILES IDX 36 14 38 15 37 16 14 19 15 20 35 21 16 22 34 23 17 24 33 25
REMARK SMILES IDX 18 26 32 27 19 28 20 29 21 30 22 31 23 33 24 34 31 35 25 36
REMARK SMILES IDX 30 37 26 38 29 39 27 40 28 41
REMARK H PARENT 37 17 37 18 22 32
ROOT
ATOM      1  C   UNL     1      -6.070  -1.429  -3.500  1.00  0.00     0.047 C 
ATOM      2  C   UNL     1      -6.523  -0.900  -2.166  1.00  0.00    -0.016 C 
ATOM      3  C   UNL     1      -7.829  -0.815  -1.806  1.00  0.00     0.089 C 
ATOM      4  Cl  UNL     1      -9.128  -1.370  -2.810  1.00  0.00    -0.080 Cl
ATOM      5  C   UNL     1      -8.206  -0.242  -0.555  1.00  0.00     0.181 A 
ATOM      6  N   UNL     1      -9.380  -0.055   0.010  1.00  0.00    -0.129 NA
ATOM      7  N   UNL     1      -9.180   0.562   1.214  1.00  0.00    -0.135 NA
ATOM      8  C   UNL     1      -7.885   0.748   1.380  1.00  0.00     0.135 A 
ATOM      9  C   UNL     1      -7.286   1.388   2.573  1.00  0.00     0.090 C 
ATOM     10  N   UNL     1      -7.208   0.249   0.280  1.00  0.00    -0.268 N 
ATOM     11  C   UNL     1      -5.866   0.161  -0.080  1.00  0.00     0.113 A 
ATOM     12  S   UNL     1      -4.611   0.738   0.864  1.00  0.00    -0.113 S 
ATOM     13  C   UNL     1      -3.432   0.211  -0.273  1.00  0.00     0.080 A 
ATOM     14  C   UNL     1      -4.042  -0.432  -1.351  1.00  0.00     0.062 A 
ATOM     15  C   UNL     1      -5.478  -0.423  -1.268  1.00  0.00     0.038 A 
ENDROOT
BRANCH  14  16
ATOM     16  N   UNL     1      -3.313  -0.983  -2.354  1.00  0.00    -0.397 N 
ATOM     17  H   UNL     1      -3.657  -1.799  -2.849  1.00  0.00     0.156 HD
ATOM     18  H   UNL     1      -2.303  -1.083  -2.202  1.00  0.00     0.156 HD
ENDBRANCH  14  16
BRANCH  13  19
ATOM     19  C   UNL     1      -2.002   0.424   0.003  1.00  0.00     0.106 A 
ATOM     20  C   UNL     1      -1.489   1.509   0.696  1.00  0.00     0.042 A 
ATOM     21  N   UNL     1      -1.178  -0.524  -0.494  1.00  0.00    -0.149 NA
ATOM     22  C   UNL     1      -0.105   1.607   0.885  1.00  0.00     0.004 A 
ATOM     23  N   UNL     1       0.184  -0.432  -0.313  1.00  0.00    -0.150 NA
ATOM     24  C   UNL     1       0.468   2.687   1.576  1.00  0.00     0.011 A 
ATOM     25  C   UNL     1       0.719   0.596   0.358  1.00  0.00     0.094 A 
ATOM     26  C   UNL     1       1.850   2.756   1.748  1.00  0.00     0.014 A 
ATOM     27  C   UNL     1       2.094   0.678   0.538  1.00  0.00     0.044 A 
ATOM     28  C   UNL     1       2.669   1.743   1.241  1.00  0.00     0.042 A 
BRANCH  28  29
ATOM     29  C   UNL     1       4.138   1.862   1.443  1.00  0.00     0.251 C 
ATOM     30  O   UNL     1       4.649   2.970   1.558  1.00  0.00    -0.269 OA
ATOM     31  N   UNL     1       4.854   0.687   1.511  1.00  0.00    -0.349 N 
ATOM     32  H   UNL     1       4.403  -0.201   1.342  1.00  0.00     0.164 HD
BRANCH  31  33
ATOM     33  C   UNL     1       6.322   0.690   1.540  1.00  0.00     0.091 C 
ATOM     34  C   UNL     1       6.897   0.806   0.108  1.00  0.00     0.061 C 
ATOM     35  C   UNL     1       6.863  -0.644   2.101  1.00  0.00     0.061 C 
ATOM     36  C   UNL     1       7.007  -0.639  -0.281  1.00  0.00    -0.043 A 
ATOM     37  C   UNL     1       6.988  -1.463   0.851  1.00  0.00    -0.043 A 
ATOM     38  C   UNL     1       7.155  -1.172  -1.550  1.00  0.00     0.004 A 
ATOM     39  C   UNL     1       7.117  -2.836   0.739  1.00  0.00     0.004 A 
ATOM     40  C   UNL     1       7.273  -2.558  -1.674  1.00  0.00     0.000 A 
ATOM     41  C   UNL     1       7.254  -3.384  -0.539  1.00  0.00     0.000 A 
ENDBRANCH  31  33
ENDBRANCH  28  29
ENDBRANCH  13  19
TORSDOF 4
