REMARK SMILES Cc1c(Cl)c2nncn2c2sc(N3CC(C(=O)NC4CC4)C3)c(N)c12
REMARK SMILES IDX 1 1 2 2 3 3 4 4 5 5 6 6 7 7 8 8 9 9 10 10 11 11 12 12 23 13
REMARK SMILES IDX 25 14 24 15 13 18 14 19 22 20 15 21 16 22 17 23 18 24 19 26
REMARK SMILES IDX 20 27 21 28
REMARK H PARENT 24 16 24 17 18 25
ROOT
ATOM      1  C   UNL     1      -5.086   1.276   1.195  1.00  0.00     0.047 C 
ATOM      2  C   UNL     1      -4.761   0.282   0.115  1.00  0.00    -0.016 C 
ATOM      3  C   UNL     1      -5.703  -0.259  -0.704  1.00  0.00     0.089 C 
ATOM      4  Cl  UNL     1      -7.380   0.171  -0.640  1.00  0.00    -0.080 Cl
ATOM      5  C   UNL     1      -5.347  -1.241  -1.676  1.00  0.00     0.180 A 
ATOM      6  N   UNL     1      -6.037  -1.915  -2.577  1.00  0.00    -0.129 NA
ATOM      7  N   UNL     1      -5.171  -2.758  -3.238  1.00  0.00    -0.138 NA
ATOM      8  C   UNL     1      -3.974  -2.580  -2.727  1.00  0.00     0.231 A 
ATOM      9  N   UNL     1      -4.023  -1.634  -1.743  1.00  0.00    -0.271 N 
ATOM     10  C   UNL     1      -3.053  -1.088  -0.923  1.00  0.00     0.114 A 
ATOM     11  S   UNL     1      -1.459  -1.570  -0.980  1.00  0.00    -0.097 S 
ATOM     12  C   UNL     1      -1.014  -0.423   0.246  1.00  0.00     0.117 A 
ATOM     13  C   UNL     1      -2.150   0.279   0.679  1.00  0.00     0.076 A 
ATOM     14  C   UNL     1      -3.359  -0.119   0.001  1.00  0.00     0.040 A 
ENDROOT
BRANCH  13  15
ATOM     15  N   UNL     1      -2.099   1.224   1.652  1.00  0.00    -0.396 N 
ATOM     16  H   UNL     1      -2.747   2.002   1.659  1.00  0.00     0.156 HD
ATOM     17  H   UNL     1      -1.204   1.502   2.034  1.00  0.00     0.156 HD
ENDBRANCH  13  15
BRANCH  12  18
ATOM     18  N   UNL     1       0.288  -0.330   0.665  1.00  0.00    -0.360 N 
ATOM     19  C   UNL     1       0.978   0.843   1.129  1.00  0.00     0.132 C 
ATOM     20  C   UNL     1       1.442  -0.757  -0.091  1.00  0.00     0.132 C 
ATOM     21  C   UNL     1       2.288   0.077   0.879  1.00  0.00     0.117 C 
BRANCH  21  22
ATOM     22  C   UNL     1       3.474   0.864   0.285  1.00  0.00     0.226 C 
ATOM     23  O   UNL     1       3.353   1.845  -0.453  1.00  0.00    -0.275 OA
ATOM     24  N   UNL     1       4.715   0.378   0.663  1.00  0.00    -0.353 N 
ATOM     25  H   UNL     1       4.766  -0.423   1.281  1.00  0.00     0.163 HD
BRANCH  24  26
ATOM     26  C   UNL     1       5.936   0.963   0.209  1.00  0.00     0.082 C 
ATOM     27  C   UNL     1       7.253   0.275   0.449  1.00  0.00     0.027 C 
ATOM     28  C   UNL     1       6.690   0.352  -0.940  1.00  0.00     0.027 C 
ENDBRANCH  24  26
ENDBRANCH  21  22
ENDBRANCH  12  18
TORSDOF 4
