REMARK SMILES O=C(NC1Cc2ccccc2C1)c1cc(C2CC2)c(Cl)cn1
REMARK SMILES IDX 13 1 14 2 15 3 19 4 20 5 21 6 22 7 2 8 1 9 3 10 4 12 5 13
REMARK SMILES IDX 12 14 6 15 11 16 7 17 10 18 8 19 9 20 16 21 17 22 18 23
REMARK H PARENT 3 11
ROOT
ATOM      1  C   UNL     1       1.764  -0.399   0.409  1.00  0.00     0.128 A 
ATOM      2  C   UNL     1       2.975   0.282   0.490  1.00  0.00     0.039 A 
ATOM      3  C   UNL     1       4.171  -0.369   0.140  1.00  0.00    -0.022 A 
ATOM      4  C   UNL     1       4.062  -1.714  -0.256  1.00  0.00     0.062 A 
ATOM      5  Cl  UNL     1       5.448  -2.656  -0.665  1.00  0.00    -0.082 Cl
ATOM      6  C   UNL     1       2.807  -2.316  -0.308  1.00  0.00     0.132 A 
ATOM      7  N   UNL     1       1.649  -1.694   0.009  1.00  0.00    -0.250 NA
ENDROOT
BRANCH   1   8
ATOM      8  C   UNL     1       0.488   0.300   0.768  1.00  0.00     0.270 C 
ATOM      9  O   UNL     1       0.470   1.485   1.078  1.00  0.00    -0.268 OA
ATOM     10  N   UNL     1      -0.635  -0.499   0.699  1.00  0.00    -0.347 N 
ATOM     11  H   UNL     1      -0.490  -1.420   0.290  1.00  0.00     0.164 HD
BRANCH  10  12
ATOM     12  C   UNL     1      -1.974   0.039   0.835  1.00  0.00     0.091 C 
ATOM     13  C   UNL     1      -3.031  -1.054   1.103  1.00  0.00     0.061 C 
ATOM     14  C   UNL     1      -2.446   0.803  -0.423  1.00  0.00     0.061 C 
ATOM     15  C   UNL     1      -4.259  -0.443   0.505  1.00  0.00    -0.043 A 
ATOM     16  C   UNL     1      -3.929   0.606  -0.358  1.00  0.00    -0.043 A 
ATOM     17  C   UNL     1      -5.576  -0.828   0.690  1.00  0.00     0.004 A 
ATOM     18  C   UNL     1      -4.908   1.293  -1.055  1.00  0.00     0.004 A 
ATOM     19  C   UNL     1      -6.572  -0.134  -0.000  1.00  0.00     0.000 A 
ATOM     20  C   UNL     1      -6.240   0.919  -0.867  1.00  0.00     0.000 A 
ENDBRANCH  10  12
ENDBRANCH   1   8
BRANCH   3  21
ATOM     21  C   UNL     1       5.497   0.358   0.235  1.00  0.00     0.021 C 
ATOM     22  C   UNL     1       5.639   1.783  -0.255  1.00  0.00     0.009 C 
ATOM     23  C   UNL     1       6.276   0.668  -1.024  1.00  0.00     0.009 C 
ENDBRANCH   3  21
TORSDOF 3
