REMARK SMILES Cc1c(Cl)c2nnc(C)n2c2sc(C(=O)NC3(F)CCCC3)c(N)c12
REMARK SMILES IDX 1 1 2 2 3 3 4 4 5 5 6 6 7 7 8 8 9 9 10 10 11 11 12 12 13 13
REMARK SMILES IDX 23 14 25 15 24 16 14 19 15 20 16 21 17 23 19 24 22 25 20 26
REMARK SMILES IDX 21 27 18 28
REMARK H PARENT 24 17 24 18 16 22
ROOT
ATOM      1  C   UNL     1       3.657  -3.378  -0.370  1.00  0.00     0.047 C 
ATOM      2  C   UNL     1       3.712  -1.888  -0.167  1.00  0.00    -0.016 C 
ATOM      3  C   UNL     1       4.870  -1.208   0.031  1.00  0.00     0.089 C 
ATOM      4  Cl  UNL     1       6.430  -1.963   0.017  1.00  0.00    -0.080 Cl
ATOM      5  C   UNL     1       4.859   0.198   0.275  1.00  0.00     0.181 A 
ATOM      6  N   UNL     1       5.828   1.063   0.489  1.00  0.00    -0.129 NA
ATOM      7  N   UNL     1       5.265   2.294   0.687  1.00  0.00    -0.135 NA
ATOM      8  C   UNL     1       3.955   2.176   0.594  1.00  0.00     0.135 A 
ATOM      9  C   UNL     1       3.008   3.302   0.752  1.00  0.00     0.090 C 
ATOM     10  N   UNL     1       3.634   0.855   0.326  1.00  0.00    -0.268 N 
ATOM     11  C   UNL     1       2.442   0.166   0.118  1.00  0.00     0.113 A 
ATOM     12  S   UNL     1       0.930   0.882   0.174  1.00  0.00    -0.109 S 
ATOM     13  C   UNL     1       0.151  -0.603  -0.197  1.00  0.00     0.118 A 
ATOM     14  C   UNL     1       1.081  -1.625  -0.366  1.00  0.00     0.065 A 
ATOM     15  C   UNL     1       2.434  -1.188  -0.152  1.00  0.00     0.038 A 
ENDROOT
BRANCH  14  16
ATOM     16  N   UNL     1       0.695  -2.883  -0.689  1.00  0.00    -0.397 N 
ATOM     17  H   UNL     1       1.283  -3.491  -1.247  1.00  0.00     0.156 HD
ATOM     18  H   UNL     1      -0.294  -3.036  -0.922  1.00  0.00     0.156 HD
ENDBRANCH  14  16
BRANCH  13  19
ATOM     19  C   UNL     1      -1.304  -0.686  -0.335  1.00  0.00     0.265 C 
ATOM     20  O   UNL     1      -1.870  -1.706  -0.725  1.00  0.00    -0.268 OA
ATOM     21  N   UNL     1      -2.005   0.453   0.003  1.00  0.00    -0.319 N 
ATOM     22  H   UNL     1      -1.451   1.293   0.086  1.00  0.00     0.167 HD
BRANCH  21  23
ATOM     23  C   UNL     1      -3.382   0.642  -0.360  1.00  0.00     0.182 C 
ATOM     24  C   UNL     1      -4.355  -0.469   0.031  1.00  0.00     0.064 C 
ATOM     25  C   UNL     1      -3.976   1.871   0.322  1.00  0.00     0.064 C 
ATOM     26  C   UNL     1      -5.721   0.209   0.170  1.00  0.00     0.005 C 
ATOM     27  C   UNL     1      -5.469   1.711   0.081  1.00  0.00     0.005 C 
ATOM     28  F   UNL     1      -3.438   0.845  -1.703  1.00  0.00    -0.220 F 
ENDBRANCH  21  23
ENDBRANCH  13  19
TORSDOF 3
