REMARK SMILES Cc1c(Cl)c2nncn2c2sc(NC3Cc4ccccc4C3)c(N)c12
REMARK SMILES IDX 1 1 2 2 3 3 4 4 5 5 6 6 7 7 8 8 9 9 10 10 11 11 12 12 23 13
REMARK SMILES IDX 25 14 24 15 13 18 14 20 15 21 22 22 16 23 21 24 17 25 20 26
REMARK SMILES IDX 18 27 19 28
REMARK H PARENT 24 16 24 17 13 19
ROOT
ATOM      1  C   UNL     1      -4.711   1.930   0.216  1.00  0.00     0.047 C 
ATOM      2  C   UNL     1      -4.351   0.508  -0.113  1.00  0.00    -0.016 C 
ATOM      3  C   UNL     1      -5.258  -0.507  -0.136  1.00  0.00     0.089 C 
ATOM      4  Cl  UNL     1      -6.950  -0.274   0.144  1.00  0.00    -0.080 Cl
ATOM      5  C   UNL     1      -4.842  -1.849  -0.392  1.00  0.00     0.180 A 
ATOM      6  N   UNL     1      -5.489  -2.997  -0.473  1.00  0.00    -0.129 NA
ATOM      7  N   UNL     1      -4.570  -3.990  -0.727  1.00  0.00    -0.138 NA
ATOM      8  C   UNL     1      -3.384  -3.429  -0.796  1.00  0.00     0.231 A 
ATOM      9  N   UNL     1      -3.494  -2.082  -0.596  1.00  0.00    -0.271 N 
ATOM     10  C   UNL     1      -2.562  -1.062  -0.580  1.00  0.00     0.114 A 
ATOM     11  S   UNL     1      -0.931  -1.324  -0.828  1.00  0.00    -0.097 S 
ATOM     12  C   UNL     1      -0.593   0.355  -0.643  1.00  0.00     0.115 A 
ATOM     13  C   UNL     1      -1.778   1.078  -0.471  1.00  0.00     0.076 A 
ATOM     14  C   UNL     1      -2.939   0.244  -0.366  1.00  0.00     0.040 A 
ENDROOT
BRANCH  13  15
ATOM     15  N   UNL     1      -1.756   2.438  -0.424  1.00  0.00    -0.396 N 
ATOM     16  H   UNL     1      -2.591   2.957  -0.670  1.00  0.00     0.156 HD
ATOM     17  H   UNL     1      -0.948   2.891  -0.847  1.00  0.00     0.156 HD
ENDBRANCH  13  15
BRANCH  12  18
ATOM     18  N   UNL     1       0.659   0.912  -0.687  1.00  0.00    -0.372 N 
ATOM     19  H   UNL     1       0.731   1.821  -0.235  1.00  0.00     0.161 HD
BRANCH  18  20
ATOM     20  C   UNL     1       1.878   0.115  -0.532  1.00  0.00     0.088 C 
ATOM     21  C   UNL     1       2.131  -0.282   0.942  1.00  0.00     0.061 C 
ATOM     22  C   UNL     1       3.119   0.933  -0.972  1.00  0.00     0.061 C 
ATOM     23  C   UNL     1       3.627  -0.306   1.003  1.00  0.00    -0.043 A 
ATOM     24  C   UNL     1       4.185   0.379  -0.079  1.00  0.00    -0.043 A 
ATOM     25  C   UNL     1       4.428  -0.869   1.983  1.00  0.00     0.004 A 
ATOM     26  C   UNL     1       5.557   0.517  -0.207  1.00  0.00     0.004 A 
ATOM     27  C   UNL     1       5.813  -0.745   1.857  1.00  0.00     0.000 A 
ATOM     28  C   UNL     1       6.374  -0.057   0.769  1.00  0.00     0.000 A 
ENDBRANCH  18  20
ENDBRANCH  12  18
TORSDOF 3
