REMARK SMILES Cc1c(Cl)c2nncn2c2sc(C(=O)NC(=O)C3CC3)c(N)c12
REMARK SMILES IDX 1 1 2 2 3 3 4 4 5 5 6 6 7 7 8 8 9 9 10 10 11 11 12 12 21 13
REMARK SMILES IDX 23 14 22 15 13 18 14 19 15 20 16 21 17 22 18 24 19 25 20 26
REMARK H PARENT 22 16 22 17 15 23
ROOT
ATOM      1  C   UNL     1      -4.114   0.424  -1.933  1.00  0.00     0.047 C 
ATOM      2  C   UNL     1      -3.561   0.238  -0.547  1.00  0.00    -0.016 C 
ATOM      3  C   UNL     1      -4.337   0.219   0.570  1.00  0.00     0.089 C 
ATOM      4  Cl  UNL     1      -6.062   0.359   0.534  1.00  0.00    -0.080 Cl
ATOM      5  C   UNL     1      -3.747   0.085   1.864  1.00  0.00     0.180 A 
ATOM      6  N   UNL     1      -4.244   0.037   3.086  1.00  0.00    -0.129 NA
ATOM      7  N   UNL     1      -3.198  -0.086   3.972  1.00  0.00    -0.138 NA
ATOM      8  C   UNL     1      -2.085  -0.110   3.274  1.00  0.00     0.231 A 
ATOM      9  N   UNL     1      -2.369  -0.008   1.941  1.00  0.00    -0.271 N 
ATOM     10  C   UNL     1      -1.566   0.005   0.815  1.00  0.00     0.113 A 
ATOM     11  S   UNL     1       0.101  -0.096   0.889  1.00  0.00    -0.109 S 
ATOM     12  C   UNL     1       0.213  -0.030  -0.830  1.00  0.00     0.118 A 
ATOM     13  C   UNL     1      -1.051   0.064  -1.413  1.00  0.00     0.065 A 
ATOM     14  C   UNL     1      -2.110   0.108  -0.445  1.00  0.00     0.038 A 
ENDROOT
BRANCH  13  15
ATOM     15  N   UNL     1      -1.202   0.117  -2.757  1.00  0.00    -0.397 N 
ATOM     16  H   UNL     1      -0.375  -0.036  -3.348  1.00  0.00     0.156 HD
ATOM     17  H   UNL     1      -2.036  -0.223  -3.222  1.00  0.00     0.156 HD
ENDBRANCH  13  15
BRANCH  12  18
ATOM     18  C   UNL     1       1.510  -0.103  -1.515  1.00  0.00     0.270 C 
ATOM     19  O   UNL     1       1.585  -0.203  -2.737  1.00  0.00    -0.268 OA
ATOM     20  N   UNL     1       2.613  -0.042  -0.680  1.00  0.00    -0.291 N 
ATOM     21  C   UNL     1       3.931  -0.112  -1.075  1.00  0.00     0.229 C 
ATOM     22  O   UNL     1       4.336  -0.262  -2.217  1.00  0.00    -0.274 OA
ATOM     23  H   UNL     1       2.424   0.063   0.302  1.00  0.00     0.173 HD
BRANCH  21  24
ATOM     24  C   UNL     1       4.944  -0.000   0.021  1.00  0.00     0.079 C 
ATOM     25  C   UNL     1       4.738  -0.614   1.386  1.00  0.00     0.014 C 
ATOM     26  C   UNL     1       4.748   0.881   1.232  1.00  0.00     0.014 C 
ENDBRANCH  21  24
ENDBRANCH  12  18
TORSDOF 3
