REMARK SMILES Cc1c(Cl)c2nncn2c2sc(N3CC(NC(=O)c4ccc(F)c(F)c4)C3)c(N)c12
REMARK SMILES IDX 13 1 14 2 15 3 27 4 12 5 2 6 3 7 30 8 5 9 28 10 10 11 6 12
REMARK SMILES IDX 9 13 11 14 7 15 8 16 1 17 4 18 29 19 16 22 17 23 18 24 19 26
REMARK SMILES IDX 20 27 26 28 21 29 24 30 22 31 25 32 23 33
REMARK H PARENT 29 20 29 21 16 25
ROOT
ATOM      1  N   UNL     1      -0.260  -0.341   0.760  1.00  0.00    -0.357 N 
ATOM      2  C   UNL     1       0.456  -1.070  -0.262  1.00  0.00     0.144 C 
ATOM      3  C   UNL     1       1.420   0.118  -0.376  1.00  0.00     0.121 C 
ATOM      4  C   UNL     1       0.863   0.539   0.992  1.00  0.00     0.144 C 
ENDROOT
BRANCH   1   5
ATOM      5  C   UNL     1      -1.581   0.015   0.641  1.00  0.00     0.117 A 
ATOM      6  C   UNL     1      -5.250  -0.585  -0.155  1.00  0.00    -0.016 C 
ATOM      7  C   UNL     1      -6.287   0.296  -0.123  1.00  0.00     0.089 C 
ATOM      8  C   UNL     1      -3.905  -0.157   0.214  1.00  0.00     0.040 A 
ATOM      9  C   UNL     1      -6.075   1.657   0.255  1.00  0.00     0.180 A 
ATOM     10  C   UNL     1      -2.650  -0.840   0.342  1.00  0.00     0.076 A 
ATOM     11  C   UNL     1      -3.723   1.164   0.544  1.00  0.00     0.114 A 
ATOM     12  N   UNL     1      -6.876   2.699   0.372  1.00  0.00    -0.129 NA
ATOM     13  N   UNL     1      -4.785   2.049   0.566  1.00  0.00    -0.271 N 
ATOM     14  S   UNL     1      -2.163   1.616   0.926  1.00  0.00    -0.097 S 
ATOM     15  N   UNL     1      -6.118   3.782   0.758  1.00  0.00    -0.138 NA
ATOM     16  C   UNL     1      -4.872   3.378   0.868  1.00  0.00     0.231 A 
ATOM     17  C   UNL     1      -5.391  -2.011  -0.612  1.00  0.00     0.047 C 
ATOM     18  Cl  UNL     1      -7.912  -0.135  -0.537  1.00  0.00    -0.080 Cl
BRANCH  10  19
ATOM     19  N   UNL     1      -2.463  -2.183   0.216  1.00  0.00    -0.396 N 
ATOM     20  H   UNL     1      -1.588  -2.546   0.593  1.00  0.00     0.156 HD
ATOM     21  H   UNL     1      -3.221  -2.813   0.456  1.00  0.00     0.156 HD
ENDBRANCH  10  19
ENDBRANCH   1   5
BRANCH   3  22
ATOM     22  N   UNL     1       2.860  -0.238  -0.411  1.00  0.00    -0.346 N 
ATOM     23  C   UNL     1       3.830   0.703  -0.126  1.00  0.00     0.251 C 
ATOM     24  O   UNL     1       3.570   1.858   0.188  1.00  0.00    -0.269 OA
ATOM     25  H   UNL     1       3.142  -1.117  -0.824  1.00  0.00     0.164 HD
BRANCH  23  26
ATOM     26  C   UNL     1       5.247   0.264  -0.246  1.00  0.00     0.042 A 
ATOM     27  C   UNL     1       6.219   1.234  -0.543  1.00  0.00     0.017 A 
ATOM     28  C   UNL     1       5.632  -1.065  -0.040  1.00  0.00     0.056 A 
ATOM     29  C   UNL     1       7.564   0.873  -0.660  1.00  0.00     0.043 A 
ATOM     30  C   UNL     1       6.976  -1.412  -0.158  1.00  0.00     0.159 A 
ATOM     31  C   UNL     1       7.934  -0.453  -0.469  1.00  0.00     0.158 A 
ATOM     32  F   UNL     1       7.338  -2.687   0.038  1.00  0.00    -0.204 F 
ATOM     33  F   UNL     1       9.223  -0.800  -0.580  1.00  0.00    -0.204 F 
ENDBRANCH  23  26
ENDBRANCH   3  22
TORSDOF 4
