REMARK SMILES Cc1c(Cl)c2nncn2c2sc(C(=O)Nc3cncc(-c4cc(F)nc(F)c4)c3)c(N)c12
REMARK SMILES IDX 13 1 14 2 15 3 12 5 2 6 3 7 32 8 5 9 30 10 10 11 6 12 9 13
REMARK SMILES IDX 11 14 7 15 8 16 1 17 4 18 31 19 16 22 17 23 29 24 18 25
REMARK SMILES IDX 20 26 19 27 21 28 22 29 28 30 23 31 26 32 25 33 24 34 27 35
REMARK H PARENT 15 4 31 20 31 21
ROOT
ATOM      1  C   UNL     1      -0.325  -0.616   1.302  1.00  0.00     0.267 C 
ATOM      2  O   UNL     1      -0.189  -1.114   2.418  1.00  0.00    -0.268 OA
ATOM      3  N   UNL     1       0.743  -0.258   0.492  1.00  0.00    -0.320 N 
ATOM      4  H   UNL     1       0.497   0.138  -0.407  1.00  0.00     0.170 HD
ENDROOT
BRANCH   1   5
ATOM      5  C   UNL     1      -1.653  -0.357   0.732  1.00  0.00     0.118 A 
ATOM      6  C   UNL     1      -5.441  -0.473   0.536  1.00  0.00    -0.016 C 
ATOM      7  C   UNL     1      -6.264   0.075  -0.398  1.00  0.00     0.089 C 
ATOM      8  C   UNL     1      -3.993  -0.303   0.440  1.00  0.00     0.038 A 
ATOM      9  C   UNL     1      -5.729   0.814  -1.497  1.00  0.00     0.180 A 
ATOM     10  C   UNL     1      -2.891  -0.722   1.261  1.00  0.00     0.065 A 
ATOM     11  C   UNL     1      -3.504   0.391  -0.642  1.00  0.00     0.113 A 
ATOM     12  N   UNL     1      -6.279   1.439  -2.520  1.00  0.00    -0.129 NA
ATOM     13  N   UNL     1      -4.355   0.939  -1.586  1.00  0.00    -0.271 N 
ATOM     14  S   UNL     1      -1.840   0.522  -0.739  1.00  0.00    -0.109 S 
ATOM     15  N   UNL     1      -5.270   1.975  -3.289  1.00  0.00    -0.138 NA
ATOM     16  C   UNL     1      -4.128   1.666  -2.719  1.00  0.00     0.231 A 
ATOM     17  C   UNL     1      -5.936  -1.303   1.689  1.00  0.00     0.047 C 
ATOM     18  Cl  UNL     1      -7.988  -0.072  -0.350  1.00  0.00    -0.080 Cl
BRANCH  10  19
ATOM     19  N   UNL     1      -2.987  -1.408   2.424  1.00  0.00    -0.397 N 
ATOM     20  H   UNL     1      -3.797  -1.340   3.028  1.00  0.00     0.156 HD
ATOM     21  H   UNL     1      -2.135  -1.551   2.979  1.00  0.00     0.156 HD
ENDBRANCH  10  19
ENDBRANCH   1   5
BRANCH   3  22
ATOM     22  C   UNL     1       2.118  -0.385   0.776  1.00  0.00     0.060 A 
ATOM     23  C   UNL     1       2.654  -0.897   1.952  1.00  0.00     0.137 A 
ATOM     24  C   UNL     1       3.023   0.043  -0.203  1.00  0.00     0.038 A 
ATOM     25  N   UNL     1       3.984  -1.000   2.196  1.00  0.00    -0.262 NA
ATOM     26  C   UNL     1       4.410  -0.043   0.003  1.00  0.00     0.002 A 
ATOM     27  C   UNL     1       4.821  -0.576   1.224  1.00  0.00     0.119 A 
BRANCH  26  28
ATOM     28  C   UNL     1       5.373   0.405  -1.012  1.00  0.00    -0.008 A 
ATOM     29  C   UNL     1       5.295  -0.039  -2.336  1.00  0.00     0.069 A 
ATOM     30  C   UNL     1       6.404   1.296  -0.695  1.00  0.00     0.069 A 
ATOM     31  C   UNL     1       6.226   0.418  -3.255  1.00  0.00     0.216 A 
ATOM     32  C   UNL     1       7.281   1.692  -1.693  1.00  0.00     0.216 A 
ATOM     33  N   UNL     1       7.218   1.276  -2.968  1.00  0.00    -0.191 NA
ATOM     34  F   UNL     1       6.133  -0.021  -4.519  1.00  0.00    -0.185 F 
ATOM     35  F   UNL     1       8.258   2.551  -1.370  1.00  0.00    -0.185 F 
ENDBRANCH  26  28
ENDBRANCH   3  22
TORSDOF 4
