REMARK SMILES Cc1c(Cl)c2nnc(C)n2c2sc(C(=O)NC3C[NH+](C4Cc5ccccc5C4)C3)c(N)c12
REMARK SMILES IDX 1 1 2 2 3 3 4 4 5 5 6 6 7 7 8 8 9 9 10 10 11 11 12 12 13 13
REMARK SMILES IDX 30 14 32 15 31 16 14 19 15 20 16 21 17 23 18 24 29 25 19 26
REMARK SMILES IDX 20 28 21 29 28 30 22 31 27 32 23 33 26 34 24 35 25 36
REMARK H PARENT 31 17 31 18 16 22 19 27
ROOT
ATOM      1  C   UNL     1      -6.475  -1.392  -1.956  1.00  0.00     0.047 C 
ATOM      2  C   UNL     1      -6.183  -0.164  -1.138  1.00  0.00    -0.016 C 
ATOM      3  C   UNL     1      -7.158   0.637  -0.634  1.00  0.00     0.089 C 
ATOM      4  Cl  UNL     1      -8.848   0.314  -0.830  1.00  0.00    -0.080 Cl
ATOM      5  C   UNL     1      -6.829   1.818   0.094  1.00  0.00     0.181 A 
ATOM      6  N   UNL     1      -7.576   2.732   0.675  1.00  0.00    -0.129 NA
ATOM      7  N   UNL     1      -6.750   3.673   1.223  1.00  0.00    -0.135 NA
ATOM      8  C   UNL     1      -5.502   3.332   0.976  1.00  0.00     0.135 A 
ATOM      9  C   UNL     1      -4.329   4.121   1.413  1.00  0.00     0.090 C 
ATOM     10  N   UNL     1      -5.489   2.145   0.262  1.00  0.00    -0.268 N 
ATOM     11  C   UNL     1      -4.481   1.325  -0.244  1.00  0.00     0.113 A 
ATOM     12  S   UNL     1      -2.847   1.652  -0.082  1.00  0.00    -0.109 S 
ATOM     13  C   UNL     1      -2.420   0.211  -0.912  1.00  0.00     0.118 A 
ATOM     14  C   UNL     1      -3.553  -0.502  -1.295  1.00  0.00     0.065 A 
ATOM     15  C   UNL     1      -4.776   0.161  -0.928  1.00  0.00     0.038 A 
ENDROOT
BRANCH  14  16
ATOM     16  N   UNL     1      -3.449  -1.680  -1.948  1.00  0.00    -0.397 N 
ATOM     17  H   UNL     1      -4.202  -2.354  -2.025  1.00  0.00     0.156 HD
ATOM     18  H   UNL     1      -2.537  -2.122  -2.089  1.00  0.00     0.156 HD
ENDBRANCH  14  16
BRANCH  13  19
ATOM     19  C   UNL     1      -1.023  -0.149  -1.122  1.00  0.00     0.264 C 
ATOM     20  O   UNL     1      -0.649  -1.222  -1.599  1.00  0.00    -0.268 OA
ATOM     21  N   UNL     1      -0.069   0.791  -0.750  1.00  0.00    -0.338 N 
ATOM     22  H   UNL     1      -0.441   1.708  -0.518  1.00  0.00     0.164 HD
BRANCH  21  23
ATOM     23  C   UNL     1       1.366   0.611  -1.127  1.00  0.00     0.192 C 
ATOM     24  C   UNL     1       2.380   1.352  -0.216  1.00  0.00     0.293 C 
ATOM     25  C   UNL     1       2.061  -0.680  -0.598  1.00  0.00     0.293 C 
ATOM     26  N   UNL     1       2.514   0.110   0.569  1.00  0.00    -0.328 N 
ATOM     27  H   UNL     1       1.831   0.059   1.340  1.00  0.00     0.348 HD
BRANCH  26  28
ATOM     28  C   UNL     1       3.901  -0.173   1.038  1.00  0.00     0.193 C 
ATOM     29  C   UNL     1       4.003  -1.591   1.650  1.00  0.00     0.101 C 
ATOM     30  C   UNL     1       5.051  -0.034   0.011  1.00  0.00     0.101 C 
ATOM     31  C   UNL     1       5.462  -1.873   1.486  1.00  0.00    -0.039 A 
ATOM     32  C   UNL     1       6.051  -1.000   0.565  1.00  0.00    -0.039 A 
ATOM     33  C   UNL     1       6.201  -2.874   2.094  1.00  0.00     0.004 A 
ATOM     34  C   UNL     1       7.391  -1.109   0.234  1.00  0.00     0.004 A 
ATOM     35  C   UNL     1       7.555  -2.984   1.774  1.00  0.00     0.000 A 
ATOM     36  C   UNL     1       8.146  -2.108   0.851  1.00  0.00     0.000 A 
ENDBRANCH  26  28
ENDBRANCH  21  23
ENDBRANCH  13  19
TORSDOF 4
