REMARK SMILES Cc1ccc(-c2ccc(F)c(F)c2)c(C(=O)NC2CC2)n1
REMARK SMILES IDX 1 1 2 2 3 3 4 4 5 5 14 6 21 7 15 8 16 9 17 10 18 12 19 13
REMARK SMILES IDX 20 14 6 15 7 16 13 17 8 18 11 19 9 20 12 21 10 22
REMARK H PARENT 17 11
ROOT
ATOM      1  C   UNL     1       0.518   4.309   0.354  1.00  0.00     0.067 C 
ATOM      2  C   UNL     1      -0.181   2.989   0.219  1.00  0.00     0.038 A 
ATOM      3  C   UNL     1      -1.556   2.944   0.036  1.00  0.00     0.024 A 
ATOM      4  C   UNL     1      -2.179   1.703  -0.088  1.00  0.00     0.013 A 
ATOM      5  C   UNL     1      -1.434   0.514  -0.029  1.00  0.00     0.013 A 
ATOM      6  C   UNL     1      -0.054   0.658   0.157  1.00  0.00     0.136 A 
ATOM      7  N   UNL     1       0.577   1.873   0.281  1.00  0.00    -0.247 NA
ENDROOT
BRANCH   6   8
ATOM      8  C   UNL     1       0.894  -0.518   0.238  1.00  0.00     0.270 C 
ATOM      9  O   UNL     1       0.533  -1.685   0.160  1.00  0.00    -0.267 OA
ATOM     10  N   UNL     1       2.214  -0.141   0.415  1.00  0.00    -0.348 N 
ATOM     11  H   UNL     1       2.384   0.861   0.469  1.00  0.00     0.164 HD
BRANCH  10  12
ATOM     12  C   UNL     1       3.292  -1.066   0.501  1.00  0.00     0.082 C 
ATOM     13  C   UNL     1       4.185  -1.305  -0.685  1.00  0.00     0.027 C 
ATOM     14  C   UNL     1       4.717  -0.585   0.519  1.00  0.00     0.027 C 
ENDBRANCH  10  12
ENDBRANCH   6   8
BRANCH   5  15
ATOM     15  C   UNL     1      -2.137  -0.765  -0.165  1.00  0.00    -0.013 A 
ATOM     16  C   UNL     1      -2.617  -1.445   0.970  1.00  0.00     0.012 A 
ATOM     17  C   UNL     1      -2.365  -1.324  -1.433  1.00  0.00     0.051 A 
ATOM     18  C   UNL     1      -3.298  -2.659   0.842  1.00  0.00     0.043 A 
ATOM     19  C   UNL     1      -3.045  -2.534  -1.552  1.00  0.00     0.159 A 
ATOM     20  C   UNL     1      -3.507  -3.196  -0.423  1.00  0.00     0.158 A 
ATOM     21  F   UNL     1      -3.259  -3.048  -2.771  1.00  0.00    -0.204 F 
ATOM     22  F   UNL     1      -4.168  -4.356  -0.543  1.00  0.00    -0.204 F 
ENDBRANCH   5  15
TORSDOF 3
