REMARK SMILES Cc1c(Cl)c2nnc(C)n2c2sc(C(=O)NC3CN(c4cncc(F)c4)C3)c(N)c12
REMARK SMILES IDX 14 1 15 2 16 3 13 5 2 6 3 7 30 8 5 9 28 10 11 11 6 12 10 13
REMARK SMILES IDX 12 14 7 15 8 16 1 17 4 18 9 19 29 20 17 23 18 24 27 25 19 26
REMARK SMILES IDX 20 27 21 28 26 29 22 30 24 31 23 32 25 33
REMARK H PARENT 16 4 29 21 29 22
ROOT
ATOM      1  C   UNL     1       0.082  -1.270  -0.533  1.00  0.00     0.263 C 
ATOM      2  O   UNL     1       0.498  -2.415  -0.355  1.00  0.00    -0.268 OA
ATOM      3  N   UNL     1       0.925  -0.281  -1.008  1.00  0.00    -0.345 N 
ATOM      4  H   UNL     1       0.521   0.637  -1.150  1.00  0.00     0.164 HD
ENDROOT
BRANCH   1   5
ATOM      5  C   UNL     1      -1.296  -0.870  -0.258  1.00  0.00     0.118 A 
ATOM      6  C   UNL     1      -4.939  -1.366   0.645  1.00  0.00    -0.016 C 
ATOM      7  C   UNL     1      -5.918  -0.440   0.807  1.00  0.00     0.089 C 
ATOM      8  C   UNL     1      -3.582  -0.954   0.305  1.00  0.00     0.038 A 
ATOM      9  C   UNL     1      -5.645   0.950   0.631  1.00  0.00     0.181 A 
ATOM     10  C   UNL     1      -2.360  -1.687   0.116  1.00  0.00     0.065 A 
ATOM     11  C   UNL     1      -3.347   0.392   0.108  1.00  0.00     0.113 A 
ATOM     12  N   UNL     1      -6.408   2.018   0.734  1.00  0.00    -0.129 NA
ATOM     13  N   UNL     1      -4.359   1.336   0.271  1.00  0.00    -0.268 N 
ATOM     14  S   UNL     1      -1.779   0.776  -0.335  1.00  0.00    -0.109 S 
ATOM     15  N   UNL     1      -5.648   3.115   0.442  1.00  0.00    -0.135 NA
ATOM     16  C   UNL     1      -4.423   2.715   0.162  1.00  0.00     0.135 A 
ATOM     17  C   UNL     1      -5.180  -2.846   0.759  1.00  0.00     0.047 C 
ATOM     18  Cl  UNL     1      -7.551  -0.846   1.221  1.00  0.00    -0.080 Cl
ATOM     19  C   UNL     1      -3.316   3.627  -0.202  1.00  0.00     0.090 C 
BRANCH  10  20
ATOM     20  N   UNL     1      -2.203  -3.024   0.261  1.00  0.00    -0.397 N 
ATOM     21  H   UNL     1      -2.767  -3.564   0.907  1.00  0.00     0.156 HD
ATOM     22  H   UNL     1      -1.255  -3.412   0.202  1.00  0.00     0.156 HD
ENDBRANCH  10  20
ENDBRANCH   1   5
BRANCH   3  23
ATOM     23  C   UNL     1       2.337  -0.550  -1.351  1.00  0.00     0.121 C 
ATOM     24  C   UNL     1       3.242  -0.988  -0.182  1.00  0.00     0.143 C 
ATOM     25  C   UNL     1       3.244   0.694  -1.410  1.00  0.00     0.143 C 
ATOM     26  N   UNL     1       4.225  -0.073  -0.696  1.00  0.00    -0.366 N 
BRANCH  26  27
ATOM     27  C   UNL     1       5.365   0.413  -0.029  1.00  0.00     0.058 A 
ATOM     28  C   UNL     1       5.977   1.620  -0.382  1.00  0.00     0.137 A 
ATOM     29  C   UNL     1       5.964  -0.307   1.008  1.00  0.00     0.068 A 
ATOM     30  N   UNL     1       7.078   2.144   0.216  1.00  0.00    -0.260 NA
ATOM     31  C   UNL     1       7.094   0.200   1.637  1.00  0.00     0.143 A 
ATOM     32  C   UNL     1       7.612   1.412   1.220  1.00  0.00     0.150 A 
ATOM     33  F   UNL     1       7.672  -0.480   2.634  1.00  0.00    -0.205 F 
ENDBRANCH  26  27
ENDBRANCH   3  23
TORSDOF 4
