REMARK SMILES O=C(Nc1cncc(F)c1)C1CN(c2cncc(F)c2)C1
REMARK SMILES IDX 11 1 12 2 13 3 21 4 2 5 1 6 3 7 4 9 5 10 10 11 6 12 8 13
REMARK SMILES IDX 7 14 9 15 14 16 15 17 20 18 16 19 18 20 17 21 19 22
REMARK H PARENT 3 8
ROOT
ATOM      1  C   UNL     1       0.237  -2.003   1.184  1.00  0.00     0.117 C 
ATOM      2  C   UNL     1       1.173  -1.877  -0.031  1.00  0.00     0.132 C 
ATOM      3  N   UNL     1       1.455  -0.543   0.433  1.00  0.00    -0.368 N 
ATOM      4  C   UNL     1       1.094  -0.876   1.787  1.00  0.00     0.132 C 
ENDROOT
BRANCH   1   5
ATOM      5  C   UNL     1      -1.275  -1.739   0.972  1.00  0.00     0.231 C 
ATOM      6  O   UNL     1      -2.135  -2.527   1.370  1.00  0.00    -0.274 OA
ATOM      7  N   UNL     1      -1.556  -0.556   0.305  1.00  0.00    -0.324 N 
ATOM      8  H   UNL     1      -0.749   0.001   0.031  1.00  0.00     0.169 HD
BRANCH   7   9
ATOM      9  C   UNL     1      -2.823  -0.042  -0.035  1.00  0.00     0.062 A 
ATOM     10  C   UNL     1      -4.045  -0.653   0.249  1.00  0.00     0.137 A 
ATOM     11  C   UNL     1      -2.862   1.180  -0.712  1.00  0.00     0.068 A 
ATOM     12  N   UNL     1      -5.257  -0.135  -0.091  1.00  0.00    -0.260 NA
ATOM     13  C   UNL     1      -4.089   1.725  -1.068  1.00  0.00     0.143 A 
ATOM     14  C   UNL     1      -5.248   1.047  -0.744  1.00  0.00     0.150 A 
ATOM     15  F   UNL     1      -4.140   2.895  -1.717  1.00  0.00    -0.205 F 
ENDBRANCH   7   9
ENDBRANCH   1   5
BRANCH   3  16
ATOM     16  C   UNL     1       2.521   0.283   0.026  1.00  0.00     0.058 A 
ATOM     17  C   UNL     1       3.037   1.293   0.846  1.00  0.00     0.137 A 
ATOM     18  C   UNL     1       3.096   0.156  -1.241  1.00  0.00     0.068 A 
ATOM     19  N   UNL     1       4.050   2.131   0.507  1.00  0.00    -0.260 NA
ATOM     20  C   UNL     1       4.135   0.999  -1.614  1.00  0.00     0.143 A 
ATOM     21  C   UNL     1       4.579   1.960  -0.725  1.00  0.00     0.150 A 
ATOM     22  F   UNL     1       4.694   0.882  -2.825  1.00  0.00    -0.205 F 
ENDBRANCH   3  16
TORSDOF 3
