REMARK SMILES Cc1c(Cl)c2nncn2c2sc(C(=O)NC3CN(c4cc(F)nc(F)c4)C3)c(N)c12
REMARK SMILES IDX 13 1 14 2 15 3 12 5 2 6 3 7 30 8 5 9 28 10 10 11 6 12 9 13
REMARK SMILES IDX 11 14 7 15 8 16 1 17 4 18 29 19 16 22 17 23 27 24 18 25
REMARK SMILES IDX 19 26 20 27 26 28 21 29 24 30 23 31 22 32 25 33
REMARK H PARENT 15 4 29 20 29 21
ROOT
ATOM      1  C   UNL     1      -0.250  -1.149  -0.078  1.00  0.00     0.263 C 
ATOM      2  O   UNL     1       0.004  -2.145  -0.756  1.00  0.00    -0.268 OA
ATOM      3  N   UNL     1       0.722  -0.577   0.724  1.00  0.00    -0.345 N 
ATOM      4  H   UNL     1       0.447   0.227   1.275  1.00  0.00     0.164 HD
ENDROOT
BRANCH   1   5
ATOM      5  C   UNL     1      -1.561  -0.503  -0.070  1.00  0.00     0.118 A 
ATOM      6  C   UNL     1      -5.241  -0.081  -0.887  1.00  0.00    -0.016 C 
ATOM      7  C   UNL     1      -6.078   0.939  -0.553  1.00  0.00     0.089 C 
ATOM      8  C   UNL     1      -3.838  -0.051  -0.484  1.00  0.00     0.038 A 
ATOM      9  C   UNL     1      -5.604   2.050   0.209  1.00  0.00     0.180 A 
ATOM     10  C   UNL     1      -2.727  -0.936  -0.699  1.00  0.00     0.065 A 
ATOM     11  C   UNL     1      -3.415   1.019   0.271  1.00  0.00     0.113 A 
ATOM     12  N   UNL     1      -6.178   3.149   0.660  1.00  0.00    -0.129 NA
ATOM     13  N   UNL     1      -4.279   2.046   0.606  1.00  0.00    -0.271 N 
ATOM     14  S   UNL     1      -1.813   0.991   0.750  1.00  0.00    -0.109 S 
ATOM     15  N   UNL     1      -5.236   3.871   1.358  1.00  0.00    -0.138 NA
ATOM     16  C   UNL     1      -4.108   3.198   1.318  1.00  0.00     0.231 A 
ATOM     17  C   UNL     1      -5.688  -1.300  -1.645  1.00  0.00     0.047 C 
ATOM     18  Cl  UNL     1      -7.749   0.984  -1.001  1.00  0.00    -0.080 Cl
BRANCH  10  19
ATOM     19  N   UNL     1      -2.756  -2.084  -1.416  1.00  0.00    -0.397 N 
ATOM     20  H   UNL     1      -1.872  -2.575  -1.591  1.00  0.00     0.156 HD
ATOM     21  H   UNL     1      -3.404  -2.231  -2.181  1.00  0.00     0.156 HD
ENDBRANCH  10  19
ENDBRANCH   1   5
BRANCH   3  22
ATOM     22  C   UNL     1       2.081  -1.147   0.839  1.00  0.00     0.121 C 
ATOM     23  C   UNL     1       2.911  -1.178  -0.460  1.00  0.00     0.143 C 
ATOM     24  C   UNL     1       3.159  -0.169   1.345  1.00  0.00     0.143 C 
ATOM     25  N   UNL     1       4.018  -0.696   0.323  1.00  0.00    -0.367 N 
BRANCH  25  26
ATOM     26  C   UNL     1       5.226  -0.150  -0.151  1.00  0.00     0.046 A 
ATOM     27  C   UNL     1       5.999   0.691   0.647  1.00  0.00     0.086 A 
ATOM     28  C   UNL     1       5.708  -0.458  -1.422  1.00  0.00     0.086 A 
ATOM     29  C   UNL     1       7.186   1.192   0.137  1.00  0.00     0.217 A 
ATOM     30  C   UNL     1       6.908   0.096  -1.835  1.00  0.00     0.217 A 
ATOM     31  N   UNL     1       7.662   0.921  -1.089  1.00  0.00    -0.190 NA
ATOM     32  F   UNL     1       7.915   2.005   0.916  1.00  0.00    -0.185 F 
ATOM     33  F   UNL     1       7.354  -0.205  -3.063  1.00  0.00    -0.185 F 
ENDBRANCH  25  26
ENDBRANCH   3  22
TORSDOF 4
