REMARK SMILES O=C(NC1CC1)c1cc(-c2cncc(F)c2)ncc1Cl
REMARK SMILES IDX 7 1 8 2 9 3 17 4 18 5 19 6 20 7 2 8 1 9 3 10 4 12 5 13 6 14
REMARK SMILES IDX 10 15 11 16 16 17 12 18 14 19 13 20 15 21
REMARK H PARENT 3 11
ROOT
ATOM      1  C   UNL     1       0.482  -0.723  -0.160  1.00  0.00     0.062 A 
ATOM      2  C   UNL     1      -0.657   0.095  -0.291  1.00  0.00     0.044 A 
ATOM      3  C   UNL     1      -1.865  -0.285   0.287  1.00  0.00     0.073 A 
ATOM      4  N   UNL     1      -1.968  -1.452   0.967  1.00  0.00    -0.255 NA
ATOM      5  C   UNL     1      -0.868  -2.236   1.072  1.00  0.00     0.133 A 
ATOM      6  C   UNL     1       0.371  -1.926   0.534  1.00  0.00     0.072 A 
ATOM      7  Cl  UNL     1       1.641  -3.071   0.741  1.00  0.00    -0.082 Cl
ENDROOT
BRANCH   1   8
ATOM      8  C   UNL     1       1.721  -0.211  -0.812  1.00  0.00     0.253 C 
ATOM      9  O   UNL     1       1.616   0.574  -1.751  1.00  0.00    -0.269 OA
ATOM     10  N   UNL     1       2.935  -0.610  -0.295  1.00  0.00    -0.349 N 
ATOM     11  H   UNL     1       2.962  -1.294   0.452  1.00  0.00     0.164 HD
BRANCH  10  12
ATOM     12  C   UNL     1       4.179  -0.167  -0.840  1.00  0.00     0.082 C 
ATOM     13  C   UNL     1       4.952   0.935  -0.170  1.00  0.00     0.027 C 
ATOM     14  C   UNL     1       5.474  -0.471  -0.138  1.00  0.00     0.027 C 
ENDBRANCH  10  12
ENDBRANCH   1   8
BRANCH   3  15
ATOM     15  C   UNL     1      -3.101   0.514   0.206  1.00  0.00     0.021 A 
ATOM     16  C   UNL     1      -3.103   1.902   0.020  1.00  0.00     0.121 A 
ATOM     17  C   UNL     1      -4.368  -0.083   0.328  1.00  0.00     0.052 A 
ATOM     18  N   UNL     1      -4.213   2.683  -0.061  1.00  0.00    -0.261 NA
ATOM     19  C   UNL     1      -5.519   0.689   0.251  1.00  0.00     0.142 A 
ATOM     20  C   UNL     1      -5.402   2.051   0.056  1.00  0.00     0.150 A 
ATOM     21  F   UNL     1      -6.724   0.117   0.363  1.00  0.00    -0.205 F 
ENDBRANCH   3  15
TORSDOF 3
