REMARK SMILES Cc1c(Cl)c2nncn2c2sc(C(=O)NC3CN(c4ccncc4Cl)C3)c(N)c12
REMARK SMILES IDX 13 1 14 2 15 3 12 5 2 6 3 7 29 8 5 9 27 10 10 11 6 12 9 13
REMARK SMILES IDX 11 14 7 15 8 16 1 17 4 18 28 19 16 22 17 23 26 24 18 25
REMARK SMILES IDX 19 26 20 27 24 28 21 29 23 30 22 31 25 32
REMARK H PARENT 15 4 28 20 28 21
ROOT
ATOM      1  C   UNL     1      -0.170   1.236  -1.135  1.00  0.00     0.263 C 
ATOM      2  O   UNL     1       0.054   2.433  -1.319  1.00  0.00    -0.268 OA
ATOM      3  N   UNL     1       0.799   0.288  -1.405  1.00  0.00    -0.345 N 
ATOM      4  H   UNL     1       0.603  -0.666  -1.125  1.00  0.00     0.164 HD
ENDROOT
BRANCH   1   5
ATOM      5  C   UNL     1      -1.440   0.733  -0.615  1.00  0.00     0.118 A 
ATOM      6  C   UNL     1      -5.050   0.919   0.534  1.00  0.00    -0.016 C 
ATOM      7  C   UNL     1      -5.839  -0.072   1.032  1.00  0.00     0.089 C 
ATOM      8  C   UNL     1      -3.667   0.645   0.156  1.00  0.00     0.038 A 
ATOM      9  C   UNL     1      -5.334  -1.399   1.182  1.00  0.00     0.180 A 
ATOM     10  C   UNL     1      -2.602   1.461  -0.358  1.00  0.00     0.065 A 
ATOM     11  C   UNL     1      -3.214  -0.648   0.286  1.00  0.00     0.113 A 
ATOM     12  N   UNL     1      -5.861  -2.523   1.628  1.00  0.00    -0.129 NA
ATOM     13  N   UNL     1      -4.030  -1.644   0.790  1.00  0.00    -0.271 N 
ATOM     14  S   UNL     1      -1.639  -0.927  -0.200  1.00  0.00    -0.109 S 
ATOM     15  N   UNL     1      -4.910  -3.514   1.529  1.00  0.00    -0.138 NA
ATOM     16  C   UNL     1      -3.824  -2.974   1.025  1.00  0.00     0.231 A 
ATOM     17  C   UNL     1      -5.535   2.324   0.306  1.00  0.00     0.047 C 
ATOM     18  Cl  UNL     1      -7.484   0.173   1.512  1.00  0.00    -0.080 Cl
BRANCH  10  19
ATOM     19  N   UNL     1      -2.666   2.792  -0.595  1.00  0.00    -0.397 N 
ATOM     20  H   UNL     1      -1.804   3.283  -0.858  1.00  0.00     0.156 HD
ATOM     21  H   UNL     1      -3.281   3.405  -0.072  1.00  0.00     0.156 HD
ENDBRANCH  10  19
ENDBRANCH   1   5
BRANCH   3  22
ATOM     22  C   UNL     1       2.175   0.665  -1.818  1.00  0.00     0.121 C 
ATOM     23  C   UNL     1       3.130  -0.522  -2.036  1.00  0.00     0.143 C 
ATOM     24  C   UNL     1       3.120   1.015  -0.655  1.00  0.00     0.143 C 
ATOM     25  N   UNL     1       3.516  -0.381  -0.647  1.00  0.00    -0.366 N 
BRANCH  25  26
ATOM     26  C   UNL     1       4.759  -0.833  -0.127  1.00  0.00     0.059 A 
ATOM     27  C   UNL     1       4.678  -1.753   0.930  1.00  0.00     0.047 A 
ATOM     28  C   UNL     1       6.037  -0.451  -0.562  1.00  0.00     0.082 A 
ATOM     29  C   UNL     1       5.839  -2.249   1.500  1.00  0.00     0.113 A 
ATOM     30  C   UNL     1       7.142  -1.008   0.077  1.00  0.00     0.133 A 
ATOM     31  N   UNL     1       7.075  -1.898   1.096  1.00  0.00    -0.263 NA
ATOM     32  Cl  UNL     1       6.337   0.668  -1.839  1.00  0.00    -0.080 Cl
ENDBRANCH  25  26
ENDBRANCH   3  22
TORSDOF 4
