REMARK SMILES Cc1c(Cl)c2nncn2c2sc(C(=O)Nc3cc(-c4cc(F)nc(F)c4)ncc3Cl)c(N)c12
REMARK SMILES IDX 13 1 14 2 15 3 12 5 2 6 3 7 33 8 5 9 31 10 10 11 6 12 9 13
REMARK SMILES IDX 11 14 7 15 8 16 1 17 4 18 32 19 16 22 17 23 29 24 18 25
REMARK SMILES IDX 28 26 27 27 30 28 19 29 20 30 26 31 21 32 24 33 23 34 22 35
REMARK SMILES IDX 25 36
REMARK H PARENT 15 4 32 20 32 21
ROOT
ATOM      1  C   UNL     1      -0.032   0.059  -0.047  1.00  0.00     0.267 C 
ATOM      2  O   UNL     1       0.820   0.861  -0.426  1.00  0.00    -0.268 OA
ATOM      3  N   UNL     1       0.125  -1.315  -0.124  1.00  0.00    -0.320 N 
ATOM      4  H   UNL     1      -0.643  -1.870   0.243  1.00  0.00     0.170 HD
ENDROOT
BRANCH   1   5
ATOM      5  C   UNL     1      -1.304   0.505   0.535  1.00  0.00     0.118 A 
ATOM      6  C   UNL     1      -3.989   2.983   1.561  1.00  0.00    -0.016 C 
ATOM      7  C   UNL     1      -5.160   2.751   2.214  1.00  0.00     0.089 C 
ATOM      8  C   UNL     1      -3.074   1.884   1.266  1.00  0.00     0.038 A 
ATOM      9  C   UNL     1      -5.524   1.428   2.610  1.00  0.00     0.180 A 
ATOM     10  C   UNL     1      -1.785   1.811   0.636  1.00  0.00     0.065 A 
ATOM     11  C   UNL     1      -3.462   0.617   1.636  1.00  0.00     0.113 A 
ATOM     12  N   UNL     1      -6.569   0.927   3.240  1.00  0.00    -0.129 NA
ATOM     13  N   UNL     1      -4.658   0.397   2.294  1.00  0.00    -0.271 N 
ATOM     14  S   UNL     1      -2.407  -0.618   1.239  1.00  0.00    -0.109 S 
ATOM     15  N   UNL     1      -6.398  -0.436   3.340  1.00  0.00    -0.138 NA
ATOM     16  C   UNL     1      -5.254  -0.737   2.769  1.00  0.00     0.231 A 
ATOM     17  C   UNL     1      -3.572   4.344   1.075  1.00  0.00     0.047 C 
ATOM     18  Cl  UNL     1      -6.293   4.000   2.609  1.00  0.00    -0.080 Cl
BRANCH  10  19
ATOM     19  N   UNL     1      -1.074   2.862   0.164  1.00  0.00    -0.397 N 
ATOM     20  H   UNL     1      -0.115   2.699  -0.162  1.00  0.00     0.156 HD
ATOM     21  H   UNL     1      -1.169   3.796   0.545  1.00  0.00     0.156 HD
ENDBRANCH  10  19
ENDBRANCH   1   5
BRANCH   3  22
ATOM     22  C   UNL     1       1.219  -2.059  -0.632  1.00  0.00     0.064 A 
ATOM     23  C   UNL     1       2.353  -1.473  -1.201  1.00  0.00     0.056 A 
ATOM     24  C   UNL     1       1.157  -3.455  -0.563  1.00  0.00     0.082 A 
ATOM     25  C   UNL     1       3.393  -2.279  -1.674  1.00  0.00     0.073 A 
ATOM     26  C   UNL     1       2.221  -4.188  -1.059  1.00  0.00     0.134 A 
ATOM     27  N   UNL     1       3.325  -3.632  -1.609  1.00  0.00    -0.255 NA
ATOM     28  Cl  UNL     1      -0.199  -4.277   0.118  1.00  0.00    -0.080 Cl
BRANCH  25  29
ATOM     29  C   UNL     1       4.628  -1.739  -2.280  1.00  0.00     0.009 A 
ATOM     30  C   UNL     1       5.372  -2.503  -3.190  1.00  0.00     0.071 A 
ATOM     31  C   UNL     1       5.127  -0.467  -1.977  1.00  0.00     0.071 A 
ATOM     32  C   UNL     1       6.528  -1.976  -3.741  1.00  0.00     0.216 A 
ATOM     33  C   UNL     1       6.296  -0.034  -2.585  1.00  0.00     0.216 A 
ATOM     34  N   UNL     1       7.010  -0.754  -3.464  1.00  0.00    -0.191 NA
ATOM     35  F   UNL     1       7.216  -2.728  -4.613  1.00  0.00    -0.185 F 
ATOM     36  F   UNL     1       6.752   1.188  -2.274  1.00  0.00    -0.185 F 
ENDBRANCH  25  29
ENDBRANCH   3  22
TORSDOF 4
