REMARK SMILES O=C(NC1CN(c2cncc(F)c2)C1)c1ccncc1Cl
REMARK SMILES IDX 4 1 5 2 6 3 14 4 3 5 1 6 2 7 15 9 16 10 20 11 17 12 19 13
REMARK SMILES IDX 18 14 21 15 7 16 8 17 13 18 9 19 11 20 10 21 12 22
REMARK H PARENT 3 8
ROOT
ATOM      1  C   UNL     1       0.172  -0.167   1.295  1.00  0.00     0.121 C 
ATOM      2  C   UNL     1       1.197   0.965   1.090  1.00  0.00     0.143 C 
ATOM      3  N   UNL     1       2.090  -0.032   0.570  1.00  0.00    -0.366 N 
ATOM      4  C   UNL     1       1.013  -0.933   0.254  1.00  0.00     0.143 C 
ENDROOT
BRANCH   1   5
ATOM      5  N   UNL     1      -1.215   0.161   0.890  1.00  0.00    -0.346 N 
ATOM      6  O   UNL     1      -1.867  -2.016   0.691  1.00  0.00    -0.269 OA
ATOM      7  C   UNL     1      -2.136  -0.822   0.601  1.00  0.00     0.253 C 
ATOM      8  H   UNL     1      -1.490   1.131   0.778  1.00  0.00     0.164 HD
BRANCH   7   9
ATOM      9  C   UNL     1      -3.512  -0.405   0.211  1.00  0.00     0.061 A 
ATOM     10  C   UNL     1      -4.528  -1.336   0.476  1.00  0.00     0.035 A 
ATOM     11  C   UNL     1      -3.851   0.805  -0.400  1.00  0.00     0.072 A 
ATOM     12  C   UNL     1      -5.833  -1.020   0.146  1.00  0.00     0.112 A 
ATOM     13  C   UNL     1      -5.193   1.024  -0.692  1.00  0.00     0.132 A 
ATOM     14  N   UNL     1      -6.189   0.146  -0.428  1.00  0.00    -0.263 NA
ATOM     15  Cl  UNL     1      -2.726   2.031  -0.848  1.00  0.00    -0.082 Cl
ENDBRANCH   7   9
ENDBRANCH   1   5
BRANCH   3  16
ATOM     16  C   UNL     1       3.262   0.181  -0.179  1.00  0.00     0.058 A 
ATOM     17  C   UNL     1       3.779  -0.789  -1.046  1.00  0.00     0.137 A 
ATOM     18  C   UNL     1       3.991   1.367  -0.069  1.00  0.00     0.068 A 
ATOM     19  N   UNL     1       4.906  -0.651  -1.791  1.00  0.00    -0.260 NA
ATOM     20  C   UNL     1       5.150   1.536  -0.817  1.00  0.00     0.143 A 
ATOM     21  C   UNL     1       5.567   0.520  -1.656  1.00  0.00     0.150 A 
ATOM     22  F   UNL     1       5.851   2.673  -0.721  1.00  0.00    -0.205 F 
ENDBRANCH   3  16
TORSDOF 3
