REMARK SMILES Cc1ccc(C(=O)NC2CC2)c(-c2cncc(F)c2)n1
REMARK SMILES IDX 1 1 2 2 3 3 4 4 5 5 12 6 20 7 13 8 14 9 19 10 15 11 17 12
REMARK SMILES IDX 16 13 18 14 6 15 7 16 8 17 9 19 10 20 11 21
REMARK H PARENT 8 18
ROOT
ATOM      1  C   UNL     1      -2.992  -3.787  -0.314  1.00  0.00     0.067 C 
ATOM      2  C   UNL     1      -1.872  -2.823  -0.571  1.00  0.00     0.038 A 
ATOM      3  C   UNL     1      -0.739  -3.237  -1.259  1.00  0.00     0.024 A 
ATOM      4  C   UNL     1       0.282  -2.318  -1.471  1.00  0.00     0.018 A 
ATOM      5  C   UNL     1       0.145  -1.010  -0.995  1.00  0.00     0.066 A 
ATOM      6  C   UNL     1      -1.039  -0.645  -0.351  1.00  0.00     0.085 A 
ATOM      7  N   UNL     1      -2.026  -1.555  -0.117  1.00  0.00    -0.252 NA
ENDROOT
BRANCH   6   8
ATOM      8  C   UNL     1      -1.369   0.710   0.119  1.00  0.00     0.022 A 
ATOM      9  C   UNL     1      -1.211   1.847  -0.681  1.00  0.00     0.121 A 
ATOM     10  C   UNL     1      -1.899   0.921   1.401  1.00  0.00     0.053 A 
ATOM     11  N   UNL     1      -1.502   3.116  -0.292  1.00  0.00    -0.261 NA
ATOM     12  C   UNL     1      -2.211   2.207   1.819  1.00  0.00     0.142 A 
ATOM     13  C   UNL     1      -1.998   3.265   0.956  1.00  0.00     0.150 A 
ATOM     14  F   UNL     1      -2.708   2.416   3.045  1.00  0.00    -0.205 F 
ENDBRANCH   6   8
BRANCH   5  15
ATOM     15  C   UNL     1       1.284  -0.095  -1.199  1.00  0.00     0.253 C 
ATOM     16  O   UNL     1       1.759   0.026  -2.322  1.00  0.00    -0.269 OA
ATOM     17  N   UNL     1       1.755   0.541  -0.069  1.00  0.00    -0.349 N 
ATOM     18  H   UNL     1       1.340   0.343   0.834  1.00  0.00     0.164 HD
BRANCH  17  19
ATOM     19  C   UNL     1       2.849   1.459  -0.115  1.00  0.00     0.082 C 
ATOM     20  C   UNL     1       3.419   2.036   1.152  1.00  0.00     0.027 C 
ATOM     21  C   UNL     1       4.213   1.042   0.356  1.00  0.00     0.027 C 
ENDBRANCH  17  19
ENDBRANCH   5  15
TORSDOF 3
