REMARK SMILES Cc1c(Cl)c2nncn2c2sc(C(=O)N3CC([NH2+]C4Cc5ccccc5C4)C3)c(N)c12
REMARK SMILES IDX 1 1 2 2 3 3 4 4 5 5 6 6 7 7 8 8 9 9 10 10 11 11 12 12 29 13
REMARK SMILES IDX 31 14 30 15 13 18 14 19 15 20 16 21 28 22 17 23 18 24 19 27
REMARK SMILES IDX 20 28 27 29 21 30 26 31 22 32 25 33 23 34 24 35
REMARK H PARENT 30 16 30 17 18 25 18 26
ROOT
ATOM      1  C   UNL     1      -6.877   0.977   0.217  1.00  0.00     0.047 C 
ATOM      2  C   UNL     1      -6.030  -0.261   0.329  1.00  0.00    -0.016 C 
ATOM      3  C   UNL     1      -6.499  -1.442   0.817  1.00  0.00     0.089 C 
ATOM      4  Cl  UNL     1      -8.138  -1.680   1.319  1.00  0.00    -0.080 Cl
ATOM      5  C   UNL     1      -5.634  -2.570   0.949  1.00  0.00     0.180 A 
ATOM      6  N   UNL     1      -5.811  -3.802   1.387  1.00  0.00    -0.129 NA
ATOM      7  N   UNL     1      -4.609  -4.468   1.299  1.00  0.00    -0.138 NA
ATOM      8  C   UNL     1      -3.726  -3.631   0.808  1.00  0.00     0.231 A 
ATOM      9  N   UNL     1      -4.311  -2.420   0.574  1.00  0.00    -0.271 N 
ATOM     10  C   UNL     1      -3.818  -1.226   0.078  1.00  0.00     0.113 A 
ATOM     11  S   UNL     1      -2.218  -1.020  -0.364  1.00  0.00    -0.109 S 
ATOM     12  C   UNL     1      -2.520   0.615  -0.803  1.00  0.00     0.118 A 
ATOM     13  C   UNL     1      -3.867   0.940  -0.658  1.00  0.00     0.065 A 
ATOM     14  C   UNL     1      -4.634  -0.129  -0.081  1.00  0.00     0.038 A 
ENDROOT
BRANCH  13  15
ATOM     15  N   UNL     1      -4.343   2.155  -1.022  1.00  0.00    -0.397 N 
ATOM     16  H   UNL     1      -5.323   2.281  -1.259  1.00  0.00     0.156 HD
ATOM     17  H   UNL     1      -3.773   2.739  -1.642  1.00  0.00     0.156 HD
ENDBRANCH  13  15
BRANCH  12  18
ATOM     18  C   UNL     1      -1.462   1.455  -1.347  1.00  0.00     0.266 C 
ATOM     19  O   UNL     1      -1.664   2.308  -2.213  1.00  0.00    -0.268 OA
ATOM     20  N   UNL     1      -0.171   1.295  -0.842  1.00  0.00    -0.326 N 
ATOM     21  C   UNL     1       0.188   1.201   0.580  1.00  0.00     0.186 C 
ATOM     22  C   UNL     1       0.886   2.290  -1.091  1.00  0.00     0.186 C 
ATOM     23  C   UNL     1       1.597   1.684   0.141  1.00  0.00     0.222 C 
BRANCH  23  24
ATOM     24  N   UNL     1       2.510   0.541  -0.196  1.00  0.00    -0.338 N 
ATOM     25  H   UNL     1       2.079  -0.030  -0.940  1.00  0.00     0.346 HD
ATOM     26  H   UNL     1       2.635  -0.100   0.603  1.00  0.00     0.346 HD
BRANCH  24  27
ATOM     27  C   UNL     1       3.873   1.058  -0.640  1.00  0.00     0.191 C 
ATOM     28  C   UNL     1       4.617  -0.099  -1.350  1.00  0.00     0.101 C 
ATOM     29  C   UNL     1       4.733   1.400   0.600  1.00  0.00     0.101 C 
ATOM     30  C   UNL     1       5.223  -0.804  -0.176  1.00  0.00    -0.039 A 
ATOM     31  C   UNL     1       5.292   0.050   0.934  1.00  0.00    -0.039 A 
ATOM     32  C   UNL     1       5.715  -2.095  -0.116  1.00  0.00     0.004 A 
ATOM     33  C   UNL     1       5.855  -0.369   2.126  1.00  0.00     0.004 A 
ATOM     34  C   UNL     1       6.270  -2.532   1.088  1.00  0.00     0.000 A 
ATOM     35  C   UNL     1       6.339  -1.676   2.199  1.00  0.00     0.000 A 
ENDBRANCH  24  27
ENDBRANCH  23  24
ENDBRANCH  12  18
TORSDOF 4
