REMARK SMILES Cc1c(Cl)c2nncn2c2sc(NC(=O)C3Cc4ccccc4C3)c(N)c12
REMARK SMILES IDX 1 1 2 2 3 3 4 4 5 5 6 6 7 7 8 8 9 9 10 10 11 11 12 12 25 13
REMARK SMILES IDX 27 14 26 15 13 18 14 19 15 20 16 22 17 23 24 24 18 25 23 26
REMARK SMILES IDX 19 27 22 28 20 29 21 30
REMARK H PARENT 26 16 26 17 13 21
ROOT
ATOM      1  C   UNL     1      -4.625   2.400  -1.494  1.00  0.00     0.047 C 
ATOM      2  C   UNL     1      -4.588   1.074  -0.787  1.00  0.00    -0.016 C 
ATOM      3  C   UNL     1      -5.696   0.311  -0.577  1.00  0.00     0.089 C 
ATOM      4  Cl  UNL     1      -7.270   0.743  -1.155  1.00  0.00    -0.080 Cl
ATOM      5  C   UNL     1      -5.612  -0.911   0.157  1.00  0.00     0.180 A 
ATOM      6  N   UNL     1      -6.502  -1.824   0.498  1.00  0.00    -0.129 NA
ATOM      7  N   UNL     1      -5.858  -2.798   1.229  1.00  0.00    -0.138 NA
ATOM      8  C   UNL     1      -4.591  -2.459   1.318  1.00  0.00     0.231 A 
ATOM      9  N   UNL     1      -4.377  -1.282   0.659  1.00  0.00    -0.271 N 
ATOM     10  C   UNL     1      -3.243  -0.521   0.449  1.00  0.00     0.114 A 
ATOM     11  S   UNL     1      -1.745  -0.953   1.048  1.00  0.00    -0.097 S 
ATOM     12  C   UNL     1      -1.038   0.432   0.358  1.00  0.00     0.121 A 
ATOM     13  C   UNL     1      -1.954   1.176  -0.381  1.00  0.00     0.077 A 
ATOM     14  C   UNL     1      -3.287   0.647  -0.279  1.00  0.00     0.040 A 
ENDROOT
BRANCH  13  15
ATOM     15  N   UNL     1      -1.571   2.267  -1.098  1.00  0.00    -0.396 N 
ATOM     16  H   UNL     1      -0.612   2.324  -1.429  1.00  0.00     0.156 HD
ATOM     17  H   UNL     1      -2.185   2.636  -1.816  1.00  0.00     0.156 HD
ENDBRANCH  13  15
BRANCH  12  18
ATOM     18  N   UNL     1       0.298   0.750   0.549  1.00  0.00    -0.316 N 
ATOM     19  C   UNL     1       1.246   0.011   1.245  1.00  0.00     0.228 C 
ATOM     20  O   UNL     1       1.065  -1.069   1.794  1.00  0.00    -0.274 OA
ATOM     21  H   UNL     1       0.568   1.656   0.192  1.00  0.00     0.170 HD
BRANCH  19  22
ATOM     22  C   UNL     1       2.601   0.731   1.294  1.00  0.00     0.087 C 
ATOM     23  C   UNL     1       3.220   0.869  -0.114  1.00  0.00     0.049 C 
ATOM     24  C   UNL     1       3.638  -0.014   2.161  1.00  0.00     0.049 C 
ATOM     25  C   UNL     1       4.195  -0.265  -0.147  1.00  0.00    -0.044 A 
ATOM     26  C   UNL     1       4.428  -0.765   1.135  1.00  0.00    -0.044 A 
ATOM     27  C   UNL     1       4.856  -0.785  -1.248  1.00  0.00     0.004 A 
ATOM     28  C   UNL     1       5.324  -1.799   1.347  1.00  0.00     0.004 A 
ATOM     29  C   UNL     1       5.755  -1.835  -1.046  1.00  0.00     0.000 A 
ATOM     30  C   UNL     1       5.987  -2.339   0.243  1.00  0.00     0.000 A 
ENDBRANCH  19  22
ENDBRANCH  12  18
TORSDOF 3
