REMARK SMILES Cc1c(Cl)c2nnc(C)n2c2sc(N3CC([NH2+]C4Cc5ccccc5C4)C3)c(N)c12
REMARK SMILES IDX 1 1 2 2 3 3 4 4 5 5 6 6 7 7 8 8 9 9 10 10 11 11 12 12 13 13
REMARK SMILES IDX 28 14 30 15 29 16 14 19 15 20 27 21 16 22 17 23 18 26 19 27
REMARK SMILES IDX 26 28 20 29 25 30 21 31 24 32 22 33 23 34
REMARK H PARENT 29 17 29 18 17 24 17 25
ROOT
ATOM      1  C   UNL     1      -3.592   3.321   1.913  1.00  0.00     0.047 C 
ATOM      2  C   UNL     1      -4.194   2.006   1.500  1.00  0.00    -0.016 C 
ATOM      3  C   UNL     1      -5.365   1.540   2.005  1.00  0.00     0.089 C 
ATOM      4  Cl  UNL     1      -6.345   2.443   3.111  1.00  0.00    -0.080 Cl
ATOM      5  C   UNL     1      -5.849   0.246   1.651  1.00  0.00     0.181 A 
ATOM      6  N   UNL     1      -6.930  -0.417   2.003  1.00  0.00    -0.129 NA
ATOM      7  N   UNL     1      -6.900  -1.638   1.390  1.00  0.00    -0.135 NA
ATOM      8  C   UNL     1      -5.802  -1.718   0.665  1.00  0.00     0.135 A 
ATOM      9  C   UNL     1      -5.432  -2.897  -0.149  1.00  0.00     0.090 C 
ATOM     10  N   UNL     1      -5.086  -0.539   0.795  1.00  0.00    -0.268 N 
ATOM     11  C   UNL     1      -3.885  -0.066   0.269  1.00  0.00     0.114 A 
ATOM     12  S   UNL     1      -2.912  -0.951  -0.763  1.00  0.00    -0.097 S 
ATOM     13  C   UNL     1      -1.756   0.326  -0.874  1.00  0.00     0.117 A 
ATOM     14  C   UNL     1      -2.223   1.453  -0.192  1.00  0.00     0.076 A 
ATOM     15  C   UNL     1      -3.419   1.198   0.565  1.00  0.00     0.040 A 
ENDROOT
BRANCH  14  16
ATOM     16  N   UNL     1      -1.583   2.651  -0.277  1.00  0.00    -0.396 N 
ATOM     17  H   UNL     1      -1.043   2.819  -1.122  1.00  0.00     0.156 HD
ATOM     18  H   UNL     1      -2.102   3.498  -0.062  1.00  0.00     0.156 HD
ENDBRANCH  14  16
BRANCH  13  19
ATOM     19  N   UNL     1      -0.590   0.191  -1.586  1.00  0.00    -0.350 N 
ATOM     20  C   UNL     1       0.682   0.713  -1.161  1.00  0.00     0.184 C 
ATOM     21  C   UNL     1      -0.009  -1.057  -2.004  1.00  0.00     0.184 C 
ATOM     22  C   UNL     1       1.341  -0.312  -2.109  1.00  0.00     0.222 C 
BRANCH  22  23
ATOM     23  N   UNL     1       2.482  -1.085  -1.532  1.00  0.00    -0.338 N 
ATOM     24  H   UNL     1       2.462  -2.051  -1.887  1.00  0.00     0.346 HD
ATOM     25  H   UNL     1       2.412  -1.169  -0.504  1.00  0.00     0.346 HD
BRANCH  23  26
ATOM     26  C   UNL     1       3.816  -0.446  -1.908  1.00  0.00     0.191 C 
ATOM     27  C   UNL     1       4.098   0.792  -1.027  1.00  0.00     0.101 C 
ATOM     28  C   UNL     1       4.938  -1.455  -1.555  1.00  0.00     0.101 C 
ATOM     29  C   UNL     1       4.666   0.141   0.197  1.00  0.00    -0.039 A 
ATOM     30  C   UNL     1       5.147  -1.141  -0.105  1.00  0.00    -0.039 A 
ATOM     31  C   UNL     1       4.781   0.668   1.470  1.00  0.00     0.004 A 
ATOM     32  C   UNL     1       5.754  -1.923   0.861  1.00  0.00     0.004 A 
ATOM     33  C   UNL     1       5.378  -0.122   2.455  1.00  0.00     0.000 A 
ATOM     34  C   UNL     1       5.860  -1.405   2.153  1.00  0.00     0.000 A 
ENDBRANCH  23  26
ENDBRANCH  22  23
ENDBRANCH  13  19
TORSDOF 4
