REMARK SMILES Cc1ccc(NC(=O)C2Cc3ccccc3C2)c(-c2sc3c(c(C)c(Cl)c4nncn43)c2N)n1
REMARK SMILES IDX 19 1 20 2 21 3 22 4 23 5 24 6 25 7 26 8 27 9 28 10 29 11
REMARK SMILES IDX 30 12 31 13 32 14 18 15 2 16 3 17 34 18 4 19 5 20 1 21 6 22
REMARK SMILES IDX 7 23 8 24 9 26 10 27 17 28 11 29 16 30 12 31 15 32 13 33
REMARK SMILES IDX 14 34 33 35
REMARK H PARENT 6 25 33 36 33 37
ROOT
ATOM      1  C   UNL     1      -0.624  -0.919   1.167  1.00  0.00     0.081 A 
ATOM      2  S   UNL     1      -1.997  -0.296   0.340  1.00  0.00    -0.113 S 
ATOM      3  C   UNL     1      -1.710   1.224   0.976  1.00  0.00     0.113 A 
ATOM      4  C   UNL     1      -0.613   1.340   1.800  1.00  0.00     0.038 A 
ATOM      5  C   UNL     1      -0.299   2.665   2.324  1.00  0.00    -0.016 C 
ATOM      6  C   UNL     1       0.956   2.772   3.144  1.00  0.00     0.047 C 
ATOM      7  C   UNL     1      -1.093   3.730   2.028  1.00  0.00     0.089 C 
ATOM      8  Cl  UNL     1      -0.783   5.334   2.601  1.00  0.00    -0.080 Cl
ATOM      9  C   UNL     1      -2.240   3.574   1.191  1.00  0.00     0.180 A 
ATOM     10  N   UNL     1      -3.150   4.416   0.738  1.00  0.00    -0.129 NA
ATOM     11  N   UNL     1      -4.025   3.712  -0.060  1.00  0.00    -0.138 NA
ATOM     12  C   UNL     1      -3.631   2.459  -0.076  1.00  0.00     0.231 A 
ATOM     13  N   UNL     1      -2.507   2.314   0.687  1.00  0.00    -0.271 N 
ATOM     14  C   UNL     1      -0.006   0.048   1.952  1.00  0.00     0.062 A 
ENDROOT
BRANCH   1  15
ATOM     15  C   UNL     1      -0.275  -2.328   0.976  1.00  0.00     0.106 A 
ATOM     16  C   UNL     1      -0.312  -4.420   1.970  1.00  0.00     0.038 A 
ATOM     17  C   UNL     1       0.291  -4.986   0.854  1.00  0.00     0.026 A 
ATOM     18  N   UNL     1      -0.591  -3.101   2.050  1.00  0.00    -0.250 NA
ATOM     19  C   UNL     1       0.629  -4.169  -0.227  1.00  0.00     0.030 A 
ATOM     20  C   UNL     1       0.356  -2.804  -0.187  1.00  0.00     0.068 A 
ATOM     21  C   UNL     1      -0.680  -5.277   3.144  1.00  0.00     0.067 C 
BRANCH  20  22
ATOM     22  N   UNL     1       0.702  -1.905  -1.229  1.00  0.00    -0.324 N 
ATOM     23  C   UNL     1       1.359  -2.187  -2.409  1.00  0.00     0.228 C 
ATOM     24  O   UNL     1       1.719  -3.302  -2.779  1.00  0.00    -0.274 OA
ATOM     25  H   UNL     1       0.461  -0.932  -1.063  1.00  0.00     0.170 HD
BRANCH  23  26
ATOM     26  C   UNL     1       1.634  -0.973  -3.297  1.00  0.00     0.087 C 
ATOM     27  C   UNL     1       2.472   0.100  -2.576  1.00  0.00     0.049 C 
ATOM     28  C   UNL     1       0.335  -0.314  -3.798  1.00  0.00     0.049 C 
ATOM     29  C   UNL     1       1.466   1.175  -2.304  1.00  0.00    -0.044 A 
ATOM     30  C   UNL     1       0.275   0.950  -2.997  1.00  0.00    -0.044 A 
ATOM     31  C   UNL     1       1.637   2.312  -1.530  1.00  0.00     0.004 A 
ATOM     32  C   UNL     1      -0.766   1.863  -2.942  1.00  0.00     0.004 A 
ATOM     33  C   UNL     1       0.594   3.237  -1.469  1.00  0.00     0.000 A 
ATOM     34  C   UNL     1      -0.598   3.017  -2.175  1.00  0.00     0.000 A 
ENDBRANCH  23  26
ENDBRANCH  20  22
ENDBRANCH   1  15
BRANCH  14  35
ATOM     35  N   UNL     1       1.059  -0.251   2.739  1.00  0.00    -0.397 N 
ATOM     36  H   UNL     1       1.222   0.287   3.583  1.00  0.00     0.156 HD
ATOM     37  H   UNL     1       1.220  -1.240   2.942  1.00  0.00     0.156 HD
ENDBRANCH  14  35
TORSDOF 4
