REMARK SMILES Cc1c(Cl)c2nncn2c2sc(N3CC([NH2+]C4Cc5ccccc5C4)C3)c(N)c12
REMARK SMILES IDX 1 1 2 2 3 3 4 4 5 5 6 6 7 7 8 8 9 9 10 10 11 11 12 12 27 13
REMARK SMILES IDX 29 14 28 15 13 18 14 19 26 20 15 21 16 22 17 25 18 26 25 27
REMARK SMILES IDX 19 28 24 29 20 30 23 31 21 32 22 33
REMARK H PARENT 28 16 28 17 16 23 16 24
ROOT
ATOM      1  C   UNL     1      -4.994  -2.951  -0.472  1.00  0.00     0.047 C 
ATOM      2  C   UNL     1      -5.034  -1.576   0.135  1.00  0.00    -0.016 C 
ATOM      3  C   UNL     1      -6.144  -1.058   0.725  1.00  0.00     0.089 C 
ATOM      4  Cl  UNL     1      -7.611  -1.950   0.934  1.00  0.00    -0.080 Cl
ATOM      5  C   UNL     1      -6.154   0.287   1.204  1.00  0.00     0.180 A 
ATOM      6  N   UNL     1      -7.062   1.025   1.812  1.00  0.00    -0.129 NA
ATOM      7  N   UNL     1      -6.527   2.274   2.027  1.00  0.00    -0.138 NA
ATOM      8  C   UNL     1      -5.306   2.275   1.545  1.00  0.00     0.231 A 
ATOM      9  N   UNL     1      -5.012   1.047   1.025  1.00  0.00    -0.271 N 
ATOM     10  C   UNL     1      -3.871   0.530   0.438  1.00  0.00     0.114 A 
ATOM     11  S   UNL     1      -2.476   1.422   0.234  1.00  0.00    -0.097 S 
ATOM     12  C   UNL     1      -1.667   0.074  -0.494  1.00  0.00     0.117 A 
ATOM     13  C   UNL     1      -2.487  -1.059  -0.453  1.00  0.00     0.076 A 
ATOM     14  C   UNL     1      -3.819  -0.775   0.007  1.00  0.00     0.040 A 
ENDROOT
BRANCH  13  15
ATOM     15  N   UNL     1      -2.025  -2.290  -0.801  1.00  0.00    -0.396 N 
ATOM     16  H   UNL     1      -2.490  -3.104  -0.411  1.00  0.00     0.156 HD
ATOM     17  H   UNL     1      -1.024  -2.442  -0.747  1.00  0.00     0.156 HD
ENDBRANCH  13  15
BRANCH  12  18
ATOM     18  N   UNL     1      -0.379   0.168  -0.966  1.00  0.00    -0.350 N 
ATOM     19  C   UNL     1       0.299   1.415  -1.239  1.00  0.00     0.184 C 
ATOM     20  C   UNL     1       0.034  -0.364  -2.244  1.00  0.00     0.184 C 
ATOM     21  C   UNL     1       1.257   0.588  -2.130  1.00  0.00     0.222 C 
BRANCH  21  22
ATOM     22  N   UNL     1       2.400  -0.056  -1.397  1.00  0.00    -0.338 N 
ATOM     23  H   UNL     1       2.517  -1.024  -1.725  1.00  0.00     0.346 HD
ATOM     24  H   UNL     1       2.173  -0.140  -0.390  1.00  0.00     0.346 HD
BRANCH  22  25
ATOM     25  C   UNL     1       3.697   0.707  -1.604  1.00  0.00     0.191 C 
ATOM     26  C   UNL     1       4.864  -0.230  -1.199  1.00  0.00     0.101 C 
ATOM     27  C   UNL     1       3.791   1.908  -0.635  1.00  0.00     0.101 C 
ATOM     28  C   UNL     1       4.907   0.008   0.280  1.00  0.00    -0.039 A 
ATOM     29  C   UNL     1       4.303   1.232   0.602  1.00  0.00    -0.039 A 
ATOM     30  C   UNL     1       5.463  -0.793   1.259  1.00  0.00     0.004 A 
ATOM     31  C   UNL     1       4.255   1.686   1.909  1.00  0.00     0.004 A 
ATOM     32  C   UNL     1       5.398  -0.355   2.583  1.00  0.00     0.000 A 
ATOM     33  C   UNL     1       4.799   0.875   2.906  1.00  0.00     0.000 A 
ENDBRANCH  22  25
ENDBRANCH  21  22
ENDBRANCH  12  18
TORSDOF 4
