REMARK SMILES Cc1cc2nncn2c2sc(C(=O)NC3CN(c4ccncc4Cl)C3)c(N)c12
REMARK SMILES IDX 12 1 13 2 14 3 11 5 2 6 3 7 28 8 4 9 26 10 9 11 5 12 8 13
REMARK SMILES IDX 10 14 6 15 7 16 1 17 27 18 15 21 16 22 25 23 17 24 18 25
REMARK SMILES IDX 19 26 23 27 20 28 22 29 21 30 24 31
REMARK H PARENT 14 4 27 19 27 20
ROOT
ATOM      1  C   UNL     1      -0.173  -1.153   0.711  1.00  0.00     0.263 C 
ATOM      2  O   UNL     1       0.139  -2.342   0.642  1.00  0.00    -0.268 OA
ATOM      3  N   UNL     1       0.764  -0.197   1.061  1.00  0.00    -0.345 N 
ATOM      4  H   UNL     1       0.446   0.763   1.103  1.00  0.00     0.164 HD
ENDROOT
BRANCH   1   5
ATOM      5  C   UNL     1      -1.521  -0.664   0.430  1.00  0.00     0.118 A 
ATOM      6  C   UNL     1      -5.209  -0.914  -0.376  1.00  0.00    -0.035 C 
ATOM      7  C   UNL     1      -6.116   0.075  -0.572  1.00  0.00     0.054 C 
ATOM      8  C   UNL     1      -3.818  -0.610  -0.086  1.00  0.00     0.037 A 
ATOM      9  C   UNL     1      -5.722   1.440  -0.493  1.00  0.00     0.161 A 
ATOM     10  C   UNL     1      -2.660  -1.421   0.156  1.00  0.00     0.065 A 
ATOM     11  C   UNL     1      -3.465   0.719   0.003  1.00  0.00     0.113 A 
ATOM     12  N   UNL     1      -6.384   2.568  -0.639  1.00  0.00    -0.131 NA
ATOM     13  N   UNL     1      -4.399   1.721  -0.200  1.00  0.00    -0.272 N 
ATOM     14  S   UNL     1      -1.864   1.026   0.372  1.00  0.00    -0.109 S 
ATOM     15  N   UNL     1      -5.498   3.606  -0.442  1.00  0.00    -0.138 NA
ATOM     16  C   UNL     1      -4.320   3.084  -0.180  1.00  0.00     0.231 A 
ATOM     17  C   UNL     1      -5.626  -2.351  -0.428  1.00  0.00     0.045 C 
BRANCH  10  18
ATOM     18  N   UNL     1      -2.627  -2.774   0.142  1.00  0.00    -0.397 N 
ATOM     19  H   UNL     1      -3.286  -3.326  -0.394  1.00  0.00     0.156 HD
ATOM     20  H   UNL     1      -1.718  -3.244   0.208  1.00  0.00     0.156 HD
ENDBRANCH  10  18
ENDBRANCH   1   5
BRANCH   3  21
ATOM     21  C   UNL     1       2.165  -0.551   1.372  1.00  0.00     0.121 C 
ATOM     22  C   UNL     1       3.152   0.626   1.375  1.00  0.00     0.143 C 
ATOM     23  C   UNL     1       3.000  -1.076   0.190  1.00  0.00     0.143 C 
ATOM     24  N   UNL     1       4.060  -0.210   0.636  1.00  0.00    -0.366 N 
BRANCH  24  25
ATOM     25  C   UNL     1       5.219   0.212  -0.066  1.00  0.00     0.059 A 
ATOM     26  C   UNL     1       5.821   1.427   0.306  1.00  0.00     0.047 A 
ATOM     27  C   UNL     1       5.843  -0.515  -1.095  1.00  0.00     0.082 A 
ATOM     28  C   UNL     1       6.957   1.874  -0.354  1.00  0.00     0.113 A 
ATOM     29  C   UNL     1       6.982   0.021  -1.695  1.00  0.00     0.133 A 
ATOM     30  N   UNL     1       7.550   1.200  -1.355  1.00  0.00    -0.263 NA
ATOM     31  Cl  UNL     1       5.314  -2.055  -1.664  1.00  0.00    -0.080 Cl
ENDBRANCH  24  25
ENDBRANCH   3  21
TORSDOF 4
