REMARK SMILES O=C(NC1C[NH+](C2Cc3ccccc3C2)C1)c1ccncc1Cl
REMARK SMILES IDX 1 1 2 2 3 3 17 5 18 6 22 7 19 8 21 9 20 10 23 11 4 12 5 13
REMARK SMILES IDX 16 14 6 15 7 17 8 18 15 19 9 20 14 21 10 22 13 23 11 24
REMARK SMILES IDX 12 25
REMARK H PARENT 3 4 6 16
ROOT
ATOM      1  O   UNL     1      -3.147  -0.767   1.781  1.00  0.00    -0.269 OA
ATOM      2  C   UNL     1      -3.175  -0.413   0.607  1.00  0.00     0.253 C 
ATOM      3  N   UNL     1      -2.062  -0.537  -0.200  1.00  0.00    -0.338 N 
ATOM      4  H   UNL     1      -2.184  -0.344  -1.192  1.00  0.00     0.164 HD
ENDROOT
BRANCH   2   5
ATOM      5  C   UNL     1      -4.424   0.128   0.009  1.00  0.00     0.061 A 
ATOM      6  C   UNL     1      -5.625  -0.348   0.552  1.00  0.00     0.035 A 
ATOM      7  C   UNL     1      -4.468   1.075  -1.018  1.00  0.00     0.072 A 
ATOM      8  C   UNL     1      -6.819   0.118   0.034  1.00  0.00     0.112 A 
ATOM      9  C   UNL     1      -5.718   1.479  -1.466  1.00  0.00     0.132 A 
ATOM     10  N   UNL     1      -6.888   1.015  -0.969  1.00  0.00    -0.263 NA
ATOM     11  Cl  UNL     1      -3.074   1.803  -1.728  1.00  0.00    -0.082 Cl
ENDBRANCH   2   5
BRANCH   3  12
ATOM     12  C   UNL     1      -0.818  -1.200   0.298  1.00  0.00     0.192 C 
ATOM     13  C   UNL     1       0.496  -0.687  -0.359  1.00  0.00     0.293 C 
ATOM     14  C   UNL     1      -0.200  -0.613   1.606  1.00  0.00     0.293 C 
ATOM     15  N   UNL     1       0.587   0.296   0.740  1.00  0.00    -0.328 N 
ATOM     16  H   UNL     1       0.047   1.151   0.537  1.00  0.00     0.348 HD
BRANCH  15  17
ATOM     17  C   UNL     1       1.956   0.607   1.281  1.00  0.00     0.193 C 
ATOM     18  C   UNL     1       2.641   1.641   0.350  1.00  0.00     0.101 C 
ATOM     19  C   UNL     1       2.944  -0.581   1.399  1.00  0.00     0.101 C 
ATOM     20  C   UNL     1       3.512   0.763  -0.493  1.00  0.00    -0.039 A 
ATOM     21  C   UNL     1       3.695  -0.488   0.106  1.00  0.00    -0.039 A 
ATOM     22  C   UNL     1       4.135   1.081  -1.687  1.00  0.00     0.004 A 
ATOM     23  C   UNL     1       4.508  -1.447  -0.473  1.00  0.00     0.004 A 
ATOM     24  C   UNL     1       4.943   0.115  -2.287  1.00  0.00     0.000 A 
ATOM     25  C   UNL     1       5.129  -1.139  -1.685  1.00  0.00     0.000 A 
ENDBRANCH  15  17
ENDBRANCH   3  12
TORSDOF 3
