REMARK SMILES Cc1c(Cl)c2nncn2c2sc(C(=O)Nc3cc(-c4cc(F)nc(F)c4)c(Cl)cn3)c(N)c12
REMARK SMILES IDX 13 1 14 2 15 3 12 5 2 6 3 7 33 8 5 9 31 10 10 11 6 12 9 13
REMARK SMILES IDX 11 14 7 15 8 16 1 17 4 18 32 19 16 22 17 23 30 24 18 25
REMARK SMILES IDX 29 26 27 27 28 28 19 29 20 30 26 31 21 32 24 33 23 34 22 35
REMARK SMILES IDX 25 36
REMARK H PARENT 15 4 32 20 32 21
ROOT
ATOM      1  C   UNL     1      -0.129   0.023  -0.140  1.00  0.00     0.269 C 
ATOM      2  O   UNL     1       0.646   0.978  -0.180  1.00  0.00    -0.268 OA
ATOM      3  N   UNL     1       0.283  -1.280   0.030  1.00  0.00    -0.306 N 
ATOM      4  H   UNL     1      -0.423  -2.003   0.060  1.00  0.00     0.171 HD
ENDROOT
BRANCH   1   5
ATOM      5  C   UNL     1      -1.580   0.205  -0.272  1.00  0.00     0.118 A 
ATOM      6  C   UNL     1      -4.841   2.127  -0.536  1.00  0.00    -0.016 C 
ATOM      7  C   UNL     1      -6.105   1.647  -0.695  1.00  0.00     0.089 C 
ATOM      8  C   UNL     1      -3.704   1.214  -0.468  1.00  0.00     0.038 A 
ATOM      9  C   UNL     1      -6.344   0.242  -0.784  1.00  0.00     0.180 A 
ATOM     10  C   UNL     1      -2.286   1.407  -0.339  1.00  0.00     0.065 A 
ATOM     11  C   UNL     1      -3.966  -0.135  -0.531  1.00  0.00     0.113 A 
ATOM     12  N   UNL     1      -7.436  -0.482  -0.938  1.00  0.00    -0.129 NA
ATOM     13  N   UNL     1      -5.257  -0.608  -0.688  1.00  0.00    -0.271 N 
ATOM     14  S   UNL     1      -2.642  -1.147  -0.405  1.00  0.00    -0.109 S 
ATOM     15  N   UNL     1      -7.074  -1.810  -0.940  1.00  0.00    -0.138 NA
ATOM     16  C   UNL     1      -5.771  -1.869  -0.788  1.00  0.00     0.231 A 
ATOM     17  C   UNL     1      -4.528   3.590  -0.385  1.00  0.00     0.047 C 
ATOM     18  Cl  UNL     1      -7.503   2.663  -0.794  1.00  0.00    -0.080 Cl
BRANCH  10  19
ATOM     19  N   UNL     1      -1.653   2.601  -0.274  1.00  0.00    -0.397 N 
ATOM     20  H   UNL     1      -2.031   3.438  -0.704  1.00  0.00     0.156 HD
ATOM     21  H   UNL     1      -0.627   2.614  -0.300  1.00  0.00     0.156 HD
ENDBRANCH  10  19
ENDBRANCH   1   5
BRANCH   3  22
ATOM     22  C   UNL     1       1.571  -1.784   0.184  1.00  0.00     0.133 A 
ATOM     23  C   UNL     1       2.728  -1.016   0.181  1.00  0.00     0.057 A 
ATOM     24  N   UNL     1       1.598  -3.123   0.342  1.00  0.00    -0.238 NA
ATOM     25  C   UNL     1       3.984  -1.632   0.346  1.00  0.00     0.006 A 
ATOM     26  C   UNL     1       2.808  -3.710   0.505  1.00  0.00     0.134 A 
ATOM     27  C   UNL     1       4.012  -3.022   0.515  1.00  0.00     0.067 A 
ATOM     28  Cl  UNL     1       5.471  -3.907   0.756  1.00  0.00    -0.082 Cl
BRANCH  25  29
ATOM     29  C   UNL     1       5.196  -0.800   0.337  1.00  0.00    -0.008 A 
ATOM     30  C   UNL     1       5.481   0.068   1.394  1.00  0.00     0.069 A 
ATOM     31  C   UNL     1       6.094  -0.837  -0.733  1.00  0.00     0.069 A 
ATOM     32  C   UNL     1       6.632   0.838   1.334  1.00  0.00     0.216 A 
ATOM     33  C   UNL     1       7.215  -0.025  -0.692  1.00  0.00     0.216 A 
ATOM     34  N   UNL     1       7.509   0.815   0.316  1.00  0.00    -0.191 NA
ATOM     35  F   UNL     1       6.893   1.665   2.356  1.00  0.00    -0.185 F 
ATOM     36  F   UNL     1       8.067  -0.071  -1.726  1.00  0.00    -0.185 F 
ENDBRANCH  25  29
ENDBRANCH   3  22
TORSDOF 4
