REMARK SMILES Cc1c(Cl)nnc2sc(NC(=O)c3sc4c(c(C)c(Cl)c5nncn54)c3N)c(N)c12
REMARK SMILES IDX 10 1 11 2 12 3 9 5 2 6 3 7 30 8 5 9 28 10 7 11 6 12 8 13
REMARK SMILES IDX 1 14 4 15 29 16 13 19 14 20 26 21 15 22 16 23 25 24 17 25
REMARK SMILES IDX 24 26 21 27 19 28 23 29 22 30 18 31 20 32 27 33
REMARK H PARENT 10 4 29 17 29 18 27 34 27 35
ROOT
ATOM      1  N   UNL     1       1.011  -0.439   0.027  1.00  0.00    -0.311 N 
ATOM      2  C   UNL     1      -0.071  -1.246   0.342  1.00  0.00     0.268 C 
ATOM      3  O   UNL     1       0.006  -2.433   0.648  1.00  0.00    -0.268 OA
ATOM      4  H   UNL     1       0.806   0.517  -0.229  1.00  0.00     0.171 HD
ENDROOT
BRANCH   1   5
ATOM      5  C   UNL     1       2.358  -0.761   0.079  1.00  0.00     0.121 A 
ATOM      6  C   UNL     1       6.039  -0.033  -0.152  1.00  0.00     0.001 A 
ATOM      7  C   UNL     1       7.013  -0.984   0.175  1.00  0.00     0.155 A 
ATOM      8  C   UNL     1       4.701  -0.498  -0.020  1.00  0.00     0.044 A 
ATOM      9  N   UNL     1       6.765  -2.229   0.639  1.00  0.00    -0.137 NA
ATOM     10  C   UNL     1       3.400   0.060  -0.314  1.00  0.00     0.077 A 
ATOM     11  C   UNL     1       4.535  -1.784   0.487  1.00  0.00     0.150 A 
ATOM     12  N   UNL     1       5.529  -2.629   0.818  1.00  0.00    -0.138 NA
ATOM     13  S   UNL     1       2.915  -2.242   0.679  1.00  0.00    -0.094 S 
ATOM     14  C   UNL     1       6.409   1.340  -0.631  1.00  0.00     0.048 C 
ATOM     15  Cl  UNL     1       8.702  -0.683   0.005  1.00  0.00    -0.060 Cl
BRANCH  10  16
ATOM     16  N   UNL     1       3.190   1.261  -0.921  1.00  0.00    -0.396 N 
ATOM     17  H   UNL     1       3.957   1.696  -1.428  1.00  0.00     0.156 HD
ATOM     18  H   UNL     1       2.327   1.412  -1.436  1.00  0.00     0.156 HD
ENDBRANCH  10  16
ENDBRANCH   1   5
BRANCH   2  19
ATOM     19  C   UNL     1      -1.375  -0.569   0.265  1.00  0.00     0.118 A 
ATOM     20  S   UNL     1      -1.490   1.139   0.060  1.00  0.00    -0.109 S 
ATOM     21  C   UNL     1      -2.640  -1.148   0.375  1.00  0.00     0.065 A 
ATOM     22  C   UNL     1      -3.159   1.065   0.113  1.00  0.00     0.113 A 
ATOM     23  C   UNL     1      -3.704  -0.190   0.261  1.00  0.00     0.038 A 
ATOM     24  N   UNL     1      -3.963   2.186   0.011  1.00  0.00    -0.271 N 
ATOM     25  C   UNL     1      -5.160  -0.299   0.268  1.00  0.00    -0.016 C 
ATOM     26  C   UNL     1      -3.678   3.514  -0.126  1.00  0.00     0.231 A 
ATOM     27  C   UNL     1      -5.344   2.107   0.043  1.00  0.00     0.180 A 
ATOM     28  C   UNL     1      -5.937   0.814   0.170  1.00  0.00     0.089 C 
ATOM     29  N   UNL     1      -4.791   4.209  -0.175  1.00  0.00    -0.138 NA
ATOM     30  N   UNL     1      -5.841   3.324  -0.068  1.00  0.00    -0.129 NA
ATOM     31  C   UNL     1      -5.720  -1.692   0.355  1.00  0.00     0.047 C 
ATOM     32  Cl  UNL     1      -7.667   0.770   0.179  1.00  0.00    -0.080 Cl
BRANCH  21  33
ATOM     33  N   UNL     1      -2.792  -2.481   0.558  1.00  0.00    -0.397 N 
ATOM     34  H   UNL     1      -3.587  -2.867   1.053  1.00  0.00     0.156 HD
ATOM     35  H   UNL     1      -1.951  -3.042   0.742  1.00  0.00     0.156 HD
ENDBRANCH  21  33
ENDBRANCH   2  19
TORSDOF 4
