REMARK SMILES Cc1c(Cl)c2nncn2c2sc(C(=O)Nc3cnn(-c4cc(F)nc(F)c4)c3)c(N)c12
REMARK SMILES IDX 13 1 14 2 15 3 12 5 2 6 3 7 31 8 5 9 29 10 10 11 6 12 9 13
REMARK SMILES IDX 11 14 7 15 8 16 1 17 4 18 30 19 16 22 17 23 28 24 18 25
REMARK SMILES IDX 19 26 20 27 21 28 27 29 22 30 25 31 24 32 23 33 26 34
REMARK H PARENT 15 4 30 20 30 21
ROOT
ATOM      1  C   UNL     1      -0.078   0.503   0.950  1.00  0.00     0.268 C 
ATOM      2  O   UNL     1       0.242   1.088   1.985  1.00  0.00    -0.268 OA
ATOM      3  N   UNL     1       0.843   0.107  -0.008  1.00  0.00    -0.318 N 
ATOM      4  H   UNL     1       0.494  -0.365  -0.831  1.00  0.00     0.170 HD
ENDROOT
BRANCH   1   5
ATOM      5  C   UNL     1      -1.476   0.174   0.647  1.00  0.00     0.118 A 
ATOM      6  C   UNL     1      -5.240   0.193   1.126  1.00  0.00    -0.016 C 
ATOM      7  C   UNL     1      -6.197  -0.438   0.394  1.00  0.00     0.089 C 
ATOM      8  C   UNL     1      -3.827   0.049   0.784  1.00  0.00     0.038 A 
ATOM      9  C   UNL     1      -5.840  -1.242  -0.732  1.00  0.00     0.180 A 
ATOM     10  C   UNL     1      -2.612   0.550   1.363  1.00  0.00     0.065 A 
ATOM     11  C   UNL     1      -3.515  -0.710  -0.321  1.00  0.00     0.113 A 
ATOM     12  N   UNL     1      -6.541  -1.950  -1.597  1.00  0.00    -0.129 NA
ATOM     13  N   UNL     1      -4.500  -1.342  -1.058  1.00  0.00    -0.271 N 
ATOM     14  S   UNL     1      -1.891  -0.812  -0.705  1.00  0.00    -0.109 S 
ATOM     15  N   UNL     1      -5.667  -2.517  -2.497  1.00  0.00    -0.138 NA
ATOM     16  C   UNL     1      -4.453  -2.143  -2.163  1.00  0.00     0.231 A 
ATOM     17  C   UNL     1      -5.552   1.091   2.291  1.00  0.00     0.047 C 
ATOM     18  Cl  UNL     1      -7.889  -0.326   0.740  1.00  0.00    -0.080 Cl
BRANCH  10  19
ATOM     19  N   UNL     1      -2.523   1.315   2.476  1.00  0.00    -0.397 N 
ATOM     20  H   UNL     1      -3.212   1.278   3.218  1.00  0.00     0.156 HD
ATOM     21  H   UNL     1      -1.592   1.518   2.858  1.00  0.00     0.156 HD
ENDBRANCH  10  19
ENDBRANCH   1   5
BRANCH   3  22
ATOM     22  C   UNL     1       2.206   0.315   0.078  1.00  0.00     0.080 A 
ATOM     23  C   UNL     1       3.000   0.929   1.064  1.00  0.00     0.161 A 
ATOM     24  C   UNL     1       3.104  -0.083  -0.884  1.00  0.00     0.141 A 
ATOM     25  N   UNL     1       4.297   0.918   0.751  1.00  0.00    -0.174 NA
ATOM     26  N   UNL     1       4.357   0.296  -0.449  1.00  0.00    -0.238 N 
BRANCH  26  27
ATOM     27  C   UNL     1       5.606   0.105  -1.098  1.00  0.00     0.074 A 
ATOM     28  C   UNL     1       6.776   0.565  -0.488  1.00  0.00     0.089 A 
ATOM     29  C   UNL     1       5.697  -0.533  -2.334  1.00  0.00     0.089 A 
ATOM     30  C   UNL     1       7.977   0.364  -1.143  1.00  0.00     0.217 A 
ATOM     31  C   UNL     1       6.954  -0.678  -2.896  1.00  0.00     0.217 A 
ATOM     32  N   UNL     1       8.097  -0.247  -2.335  1.00  0.00    -0.190 NA
ATOM     33  F   UNL     1       9.100   0.804  -0.560  1.00  0.00    -0.185 F 
ATOM     34  F   UNL     1       7.044  -1.291  -4.085  1.00  0.00    -0.185 F 
ENDBRANCH  26  27
ENDBRANCH   3  22
TORSDOF 4
