REMARK SMILES Cc1c(Cl)c2nnc(C)n2c2sc(N3CC(NC(=O)c4cc(F)nc(F)c4)C3)c(N)c12
REMARK SMILES IDX 14 1 15 2 16 3 28 4 13 5 2 6 3 7 31 8 5 9 29 10 11 11 6 12
REMARK SMILES IDX 10 13 12 14 7 15 8 16 1 17 4 18 9 19 30 20 17 23 18 24 19 25
REMARK SMILES IDX 20 27 21 28 27 29 22 30 25 31 24 32 23 33 26 34
REMARK H PARENT 30 21 30 22 17 26
ROOT
ATOM      1  N   UNL     1       0.330   0.020  -0.768  1.00  0.00    -0.357 N 
ATOM      2  C   UNL     1       0.740   0.640  -2.010  1.00  0.00     0.144 C 
ATOM      3  C   UNL     1       2.010  -0.226  -1.932  1.00  0.00     0.121 C 
ATOM      4  C   UNL     1       1.139  -1.148  -1.058  1.00  0.00     0.144 C 
ENDROOT
BRANCH   1   5
ATOM      5  C   UNL     1      -0.977  -0.045  -0.371  1.00  0.00     0.117 A 
ATOM      6  C   UNL     1      -4.613  -1.112  -0.230  1.00  0.00    -0.016 C 
ATOM      7  C   UNL     1      -5.590  -0.722   0.628  1.00  0.00     0.089 C 
ATOM      8  C   UNL     1      -3.268  -0.558  -0.120  1.00  0.00     0.040 A 
ATOM      9  C   UNL     1      -5.318   0.216   1.668  1.00  0.00     0.181 A 
ATOM     10  C   UNL     1      -2.075  -0.718  -0.912  1.00  0.00     0.076 A 
ATOM     11  C   UNL     1      -3.017   0.313   0.921  1.00  0.00     0.114 A 
ATOM     12  N   UNL     1      -6.083   0.745   2.599  1.00  0.00    -0.129 NA
ATOM     13  N   UNL     1      -4.022   0.700   1.804  1.00  0.00    -0.268 N 
ATOM     14  S   UNL     1      -1.440   0.856   1.021  1.00  0.00    -0.097 S 
ATOM     15  N   UNL     1      -5.310   1.572   3.366  1.00  0.00    -0.135 NA
ATOM     16  C   UNL     1      -4.076   1.545   2.900  1.00  0.00     0.135 A 
ATOM     17  C   UNL     1      -4.824  -2.161  -1.288  1.00  0.00     0.047 C 
ATOM     18  Cl  UNL     1      -7.214  -1.322   0.552  1.00  0.00    -0.080 Cl
ATOM     19  C   UNL     1      -2.953   2.314   3.482  1.00  0.00     0.090 C 
BRANCH  10  20
ATOM     20  N   UNL     1      -1.994  -1.434  -2.063  1.00  0.00    -0.396 N 
ATOM     21  H   UNL     1      -1.166  -1.352  -2.643  1.00  0.00     0.156 HD
ATOM     22  H   UNL     1      -2.814  -1.581  -2.640  1.00  0.00     0.156 HD
ENDBRANCH  10  20
ENDBRANCH   1   5
BRANCH   3  23
ATOM     23  N   UNL     1       3.150   0.408  -1.208  1.00  0.00    -0.346 N 
ATOM     24  C   UNL     1       4.384  -0.207  -1.161  1.00  0.00     0.251 C 
ATOM     25  O   UNL     1       4.639  -1.246  -1.757  1.00  0.00    -0.269 OA
ATOM     26  H   UNL     1       2.922   1.095  -0.498  1.00  0.00     0.164 HD
BRANCH  24  27
ATOM     27  C   UNL     1       5.420   0.430  -0.310  1.00  0.00     0.048 A 
ATOM     28  C   UNL     1       6.457  -0.367   0.171  1.00  0.00     0.074 A 
ATOM     29  C   UNL     1       5.406   1.789  -0.012  1.00  0.00     0.074 A 
ATOM     30  C   UNL     1       7.423   0.233   0.953  1.00  0.00     0.216 A 
ATOM     31  C   UNL     1       6.427   2.281   0.779  1.00  0.00     0.216 A 
ATOM     32  N   UNL     1       7.431   1.539   1.276  1.00  0.00    -0.191 NA
ATOM     33  F   UNL     1       8.419  -0.527   1.429  1.00  0.00    -0.185 F 
ATOM     34  F   UNL     1       6.422   3.589   1.072  1.00  0.00    -0.185 F 
ENDBRANCH  24  27
ENDBRANCH   3  23
TORSDOF 4
