REMARK SMILES O=C(NC1Cc2ccccc2C1)c1cc(C2CC2)ncc1Cl
REMARK SMILES IDX 13 1 14 2 15 3 19 4 20 5 21 6 22 7 2 8 1 9 3 10 4 12 5 13
REMARK SMILES IDX 12 14 6 15 11 16 7 17 10 18 8 19 9 20 16 21 17 22 18 23
REMARK H PARENT 3 11
ROOT
ATOM      1  C   UNL     1       1.654  -1.210  -0.473  1.00  0.00     0.061 A 
ATOM      2  C   UNL     1       2.591  -0.549   0.331  1.00  0.00     0.039 A 
ATOM      3  C   UNL     1       3.949  -0.765   0.117  1.00  0.00     0.044 A 
ATOM      4  N   UNL     1       4.368  -1.611  -0.857  1.00  0.00    -0.259 NA
ATOM      5  C   UNL     1       3.437  -2.244  -1.615  1.00  0.00     0.132 A 
ATOM      6  C   UNL     1       2.073  -2.082  -1.468  1.00  0.00     0.072 A 
ATOM      7  Cl  UNL     1       1.006  -2.901  -2.539  1.00  0.00    -0.082 Cl
ENDROOT
BRANCH   1   8
ATOM      8  C   UNL     1       0.224  -0.973  -0.210  1.00  0.00     0.253 C 
ATOM      9  O   UNL     1      -0.493  -1.898   0.137  1.00  0.00    -0.269 OA
ATOM     10  N   UNL     1      -0.181   0.334  -0.371  1.00  0.00    -0.349 N 
ATOM     11  H   UNL     1       0.472   1.001  -0.761  1.00  0.00     0.164 HD
BRANCH  10  12
ATOM     12  C   UNL     1      -1.563   0.766  -0.222  1.00  0.00     0.091 C 
ATOM     13  C   UNL     1      -2.170   0.568   1.186  1.00  0.00     0.061 C 
ATOM     14  C   UNL     1      -2.559   0.130  -1.218  1.00  0.00     0.061 C 
ATOM     15  C   UNL     1      -3.634   0.585   0.868  1.00  0.00    -0.043 A 
ATOM     16  C   UNL     1      -3.855   0.338  -0.493  1.00  0.00    -0.043 A 
ATOM     17  C   UNL     1      -4.693   0.766   1.741  1.00  0.00     0.004 A 
ATOM     18  C   UNL     1      -5.139   0.265  -1.007  1.00  0.00     0.004 A 
ATOM     19  C   UNL     1      -5.991   0.708   1.229  1.00  0.00     0.000 A 
ATOM     20  C   UNL     1      -6.212   0.460  -0.135  1.00  0.00     0.000 A 
ENDBRANCH  10  12
ENDBRANCH   1   8
BRANCH   3  21
ATOM     21  C   UNL     1       4.985  -0.081   0.976  1.00  0.00     0.038 C 
ATOM     22  C   UNL     1       5.127   1.424   0.946  1.00  0.00     0.010 C 
ATOM     23  C   UNL     1       6.191   0.565   0.332  1.00  0.00     0.010 C 
ENDBRANCH   3  21
TORSDOF 3
