REMARK SMILES Cc1c(Cl)c2nnc(C)n2c2sc(-n3cc(C(=O)NC4CC4)cn3)c(N)c12
REMARK SMILES IDX 1 1 2 2 3 3 4 4 5 5 6 6 7 7 8 8 9 9 10 10 11 11 12 12 13 13
REMARK SMILES IDX 25 14 27 15 26 16 14 19 15 20 24 21 16 22 23 23 17 24 18 25
REMARK SMILES IDX 19 26 20 28 21 29 22 30
REMARK H PARENT 26 17 26 18 19 27
ROOT
ATOM      1  C   UNL     1      -3.647  -1.960  -2.667  1.00  0.00     0.047 C 
ATOM      2  C   UNL     1      -4.025  -1.124  -1.475  1.00  0.00    -0.016 C 
ATOM      3  C   UNL     1      -5.297  -1.049  -1.004  1.00  0.00     0.089 C 
ATOM      4  Cl  UNL     1      -6.642  -1.815  -1.782  1.00  0.00    -0.080 Cl
ATOM      5  C   UNL     1      -5.591  -0.333   0.195  1.00  0.00     0.181 A 
ATOM      6  N   UNL     1      -6.721  -0.115   0.836  1.00  0.00    -0.129 NA
ATOM      7  N   UNL     1      -6.438   0.608   1.961  1.00  0.00    -0.135 NA
ATOM      8  C   UNL     1      -5.139   0.830   2.003  1.00  0.00     0.135 A 
ATOM      9  C   UNL     1      -4.458   1.581   3.082  1.00  0.00     0.090 C 
ATOM     10  N   UNL     1      -4.544   0.258   0.891  1.00  0.00    -0.268 N 
ATOM     11  C   UNL     1      -3.240   0.197   0.407  1.00  0.00     0.114 A 
ATOM     12  S   UNL     1      -1.931   0.891   1.182  1.00  0.00    -0.095 S 
ATOM     13  C   UNL     1      -0.867   0.366  -0.048  1.00  0.00     0.143 A 
ATOM     14  C   UNL     1      -1.540  -0.247  -1.096  1.00  0.00     0.079 A 
ATOM     15  C   UNL     1      -2.937  -0.444  -0.779  1.00  0.00     0.040 A 
ENDROOT
BRANCH  14  16
ATOM     16  N   UNL     1      -0.967  -0.585  -2.279  1.00  0.00    -0.396 N 
ATOM     17  H   UNL     1      -1.548  -0.749  -3.095  1.00  0.00     0.156 HD
ATOM     18  H   UNL     1      -0.123  -0.104  -2.586  1.00  0.00     0.156 HD
ENDBRANCH  14  16
BRANCH  13  19
ATOM     19  N   UNL     1       0.504   0.595   0.129  1.00  0.00    -0.228 N 
ATOM     20  C   UNL     1       1.579   0.083  -0.561  1.00  0.00     0.130 A 
ATOM     21  N   UNL     1       0.924   1.431   1.116  1.00  0.00    -0.175 NA
ATOM     22  C   UNL     1       2.732   0.642  -0.042  1.00  0.00     0.078 A 
ATOM     23  C   UNL     1       2.251   1.468   0.991  1.00  0.00     0.149 A 
BRANCH  22  24
ATOM     24  C   UNL     1       4.078   0.367  -0.516  1.00  0.00     0.254 C 
ATOM     25  O   UNL     1       4.280  -0.337  -1.502  1.00  0.00    -0.269 OA
ATOM     26  N   UNL     1       5.095   0.951   0.215  1.00  0.00    -0.349 N 
ATOM     27  H   UNL     1       4.876   1.501   1.033  1.00  0.00     0.164 HD
BRANCH  26  28
ATOM     28  C   UNL     1       6.473   0.759  -0.111  1.00  0.00     0.082 C 
ATOM     29  C   UNL     1       7.555   1.230   0.822  1.00  0.00     0.027 C 
ATOM     30  C   UNL     1       7.302  -0.239   0.648  1.00  0.00     0.027 C 
ENDBRANCH  26  28
ENDBRANCH  22  24
ENDBRANCH  13  19
TORSDOF 4
