REMARK SMILES O=C(Nc1ccncc1Cl)C1CN(c2cncc(F)c2)C1
REMARK SMILES IDX 11 1 12 2 13 3 21 4 2 5 1 6 3 7 4 9 5 10 9 11 6 12 8 13 7 14
REMARK SMILES IDX 10 15 14 16 15 17 20 18 16 19 18 20 17 21 19 22
REMARK H PARENT 3 8
ROOT
ATOM      1  C   UNL     1       0.125  -0.356   0.514  1.00  0.00     0.117 C 
ATOM      2  C   UNL     1       0.998   0.855   0.890  1.00  0.00     0.132 C 
ATOM      3  N   UNL     1       2.114   0.103   0.385  1.00  0.00    -0.368 N 
ATOM      4  C   UNL     1       1.266  -0.690  -0.464  1.00  0.00     0.132 C 
ENDROOT
BRANCH   1   5
ATOM      5  C   UNL     1      -1.267  -0.065  -0.093  1.00  0.00     0.231 C 
ATOM      6  O   UNL     1      -1.431   0.720  -1.030  1.00  0.00    -0.274 OA
ATOM      7  N   UNL     1      -2.289  -0.771   0.520  1.00  0.00    -0.324 N 
ATOM      8  H   UNL     1      -2.035  -1.390   1.284  1.00  0.00     0.169 HD
BRANCH   7   9
ATOM      9  C   UNL     1      -3.676  -0.746   0.221  1.00  0.00     0.063 A 
ATOM     10  C   UNL     1      -4.232   0.037  -0.789  1.00  0.00     0.048 A 
ATOM     11  C   UNL     1      -4.535  -1.553   0.982  1.00  0.00     0.082 A 
ATOM     12  C   UNL     1      -5.604  -0.015  -0.997  1.00  0.00     0.113 A 
ATOM     13  C   UNL     1      -5.893  -1.537   0.698  1.00  0.00     0.133 A 
ATOM     14  N   UNL     1      -6.448  -0.783  -0.278  1.00  0.00    -0.263 NA
ATOM     15  Cl  UNL     1      -3.948  -2.560   2.255  1.00  0.00    -0.080 Cl
ENDBRANCH   7   9
ENDBRANCH   1   5
BRANCH   3  16
ATOM     16  C   UNL     1       3.394   0.600   0.073  1.00  0.00     0.058 A 
ATOM     17  C   UNL     1       3.921   1.740   0.692  1.00  0.00     0.137 A 
ATOM     18  C   UNL     1       4.219  -0.043  -0.853  1.00  0.00     0.068 A 
ATOM     19  N   UNL     1       5.149   2.265   0.446  1.00  0.00    -0.260 NA
ATOM     20  C   UNL     1       5.481   0.471  -1.124  1.00  0.00     0.143 A 
ATOM     21  C   UNL     1       5.903   1.611  -0.465  1.00  0.00     0.150 A 
ATOM     22  F   UNL     1       6.278  -0.137  -2.012  1.00  0.00    -0.205 F 
ENDBRANCH   3  16
TORSDOF 3
