REMARK SMILES Cc1c(Cl)c2nncn2c2sc(C(=O)Nc3cncc(C4(F)CCCC4)c3)c(N)c12
REMARK SMILES IDX 13 1 14 2 15 3 12 5 2 6 3 7 30 8 5 9 28 10 10 11 6 12 9 13
REMARK SMILES IDX 11 14 7 15 8 16 1 17 4 18 29 19 16 22 17 23 27 24 18 25
REMARK SMILES IDX 20 26 19 27 21 28 23 29 26 30 24 31 25 32 22 33
REMARK H PARENT 15 4 29 20 29 21
ROOT
ATOM      1  C   UNL     1      -0.331  -0.236  -0.039  1.00  0.00     0.267 C 
ATOM      2  O   UNL     1       0.348   0.348  -0.882  1.00  0.00    -0.268 OA
ATOM      3  N   UNL     1       0.203  -1.022   0.971  1.00  0.00    -0.320 N 
ATOM      4  H   UNL     1      -0.472  -1.437   1.602  1.00  0.00     0.170 HD
ENDROOT
BRANCH   1   5
ATOM      5  C   UNL     1      -1.797  -0.142  -0.040  1.00  0.00     0.118 A 
ATOM      6  C   UNL     1      -5.204   1.128  -1.125  1.00  0.00    -0.016 C 
ATOM      7  C   UNL     1      -6.436   0.743  -0.694  1.00  0.00     0.089 C 
ATOM      8  C   UNL     1      -4.000   0.501  -0.587  1.00  0.00     0.038 A 
ATOM      9  C   UNL     1      -6.575  -0.270   0.303  1.00  0.00     0.180 A 
ATOM     10  C   UNL     1      -2.598   0.661  -0.852  1.00  0.00     0.065 A 
ATOM     11  C   UNL     1      -4.163  -0.453   0.392  1.00  0.00     0.113 A 
ATOM     12  N   UNL     1      -7.618  -0.826   0.889  1.00  0.00    -0.129 NA
ATOM     13  N   UNL     1      -5.422  -0.830   0.822  1.00  0.00    -0.271 N 
ATOM     14  S   UNL     1      -2.758  -1.111   1.014  1.00  0.00    -0.109 S 
ATOM     15  N   UNL     1      -7.157  -1.751   1.799  1.00  0.00    -0.138 NA
ATOM     16  C   UNL     1      -5.845  -1.740   1.748  1.00  0.00     0.231 A 
ATOM     17  C   UNL     1      -4.988   2.222  -2.135  1.00  0.00     0.047 C 
ATOM     18  Cl  UNL     1      -7.910   1.429  -1.290  1.00  0.00    -0.080 Cl
BRANCH  10  19
ATOM     19  N   UNL     1      -2.058   1.495  -1.772  1.00  0.00    -0.397 N 
ATOM     20  H   UNL     1      -2.551   1.758  -2.617  1.00  0.00     0.156 HD
ATOM     21  H   UNL     1      -1.048   1.435  -1.949  1.00  0.00     0.156 HD
ENDBRANCH  10  19
ENDBRANCH   1   5
BRANCH   3  22
ATOM     22  C   UNL     1       1.560  -1.308   1.232  1.00  0.00     0.060 A 
ATOM     23  C   UNL     1       1.868  -2.119   2.322  1.00  0.00     0.137 A 
ATOM     24  C   UNL     1       2.632  -0.835   0.475  1.00  0.00     0.036 A 
ATOM     25  N   UNL     1       3.120  -2.472   2.688  1.00  0.00    -0.262 NA
ATOM     26  C   UNL     1       3.952  -1.173   0.813  1.00  0.00     0.009 A 
ATOM     27  C   UNL     1       4.127  -1.993   1.926  1.00  0.00     0.118 A 
BRANCH  26  28
ATOM     28  C   UNL     1       5.179  -0.693   0.063  1.00  0.00     0.137 C 
ATOM     29  C   UNL     1       4.990  -0.427  -1.436  1.00  0.00     0.046 C 
ATOM     30  C   UNL     1       5.680   0.657   0.584  1.00  0.00     0.046 C 
ATOM     31  C   UNL     1       4.692   1.069  -1.583  1.00  0.00     0.004 C 
ATOM     32  C   UNL     1       4.886   1.689  -0.203  1.00  0.00     0.004 C 
ATOM     33  F   UNL     1       6.203  -1.593   0.190  1.00  0.00    -0.239 F 
ENDBRANCH  26  28
ENDBRANCH   3  22
TORSDOF 4
