REMARK SMILES Cc1c(Cl)c2nnc(C)n2c2sc(N3CC(NC(=O)c4ccncc4Cl)C3)c(N)c12
REMARK SMILES IDX 14 1 15 2 16 3 27 4 13 5 2 6 3 7 30 8 5 9 28 10 11 11 6 12
REMARK SMILES IDX 10 13 12 14 7 15 8 16 1 17 4 18 9 19 29 20 17 23 18 24 19 25
REMARK SMILES IDX 20 27 21 28 25 29 22 30 24 31 23 32 26 33
REMARK H PARENT 29 21 29 22 17 26
ROOT
ATOM      1  N   UNL     1       0.421   0.652   0.331  1.00  0.00    -0.357 N 
ATOM      2  C   UNL     1       1.087   1.452   1.335  1.00  0.00     0.144 C 
ATOM      3  C   UNL     1       2.227   1.649   0.320  1.00  0.00     0.121 C 
ATOM      4  C   UNL     1       1.148   1.324  -0.728  1.00  0.00     0.144 C 
ENDROOT
BRANCH   1   5
ATOM      5  C   UNL     1      -0.932   0.459   0.292  1.00  0.00     0.117 A 
ATOM      6  C   UNL     1      -4.644   1.218   0.423  1.00  0.00    -0.016 C 
ATOM      7  C   UNL     1      -5.698   0.368   0.325  1.00  0.00     0.089 C 
ATOM      8  C   UNL     1      -3.278   0.714   0.326  1.00  0.00     0.040 A 
ATOM      9  C   UNL     1      -5.494  -1.033   0.150  1.00  0.00     0.181 A 
ATOM     10  C   UNL     1      -1.993   1.367   0.319  1.00  0.00     0.076 A 
ATOM     11  C   UNL     1      -3.104  -0.649   0.200  1.00  0.00     0.114 A 
ATOM     12  N   UNL     1      -6.336  -2.037   0.025  1.00  0.00    -0.129 NA
ATOM     13  N   UNL     1      -4.191  -1.515   0.110  1.00  0.00    -0.268 N 
ATOM     14  S   UNL     1      -1.512  -1.156   0.162  1.00  0.00    -0.097 S 
ATOM     15  N   UNL     1      -5.610  -3.190  -0.091  1.00  0.00    -0.135 NA
ATOM     16  C   UNL     1      -4.328  -2.885  -0.036  1.00  0.00     0.135 A 
ATOM     17  C   UNL     1      -4.801   2.689   0.693  1.00  0.00     0.047 C 
ATOM     18  Cl  UNL     1      -7.349   0.889   0.415  1.00  0.00    -0.080 Cl
ATOM     19  C   UNL     1      -3.235  -3.880  -0.125  1.00  0.00     0.090 C 
BRANCH  10  20
ATOM     20  N   UNL     1      -1.801   2.711   0.334  1.00  0.00    -0.396 N 
ATOM     21  H   UNL     1      -2.503   3.331  -0.054  1.00  0.00     0.156 HD
ATOM     22  H   UNL     1      -0.874   3.075   0.138  1.00  0.00     0.156 HD
ENDBRANCH  10  20
ENDBRANCH   1   5
BRANCH   3  23
ATOM     23  N   UNL     1       3.322   0.648   0.407  1.00  0.00    -0.346 N 
ATOM     24  C   UNL     1       4.440   0.726  -0.390  1.00  0.00     0.253 C 
ATOM     25  O   UNL     1       4.610   1.648  -1.183  1.00  0.00    -0.269 OA
ATOM     26  H   UNL     1       3.181  -0.182   0.974  1.00  0.00     0.164 HD
BRANCH  24  27
ATOM     27  C   UNL     1       5.439  -0.378  -0.317  1.00  0.00     0.061 A 
ATOM     28  C   UNL     1       6.251  -0.539  -1.452  1.00  0.00     0.035 A 
ATOM     29  C   UNL     1       5.630  -1.234   0.771  1.00  0.00     0.072 A 
ATOM     30  C   UNL     1       7.199  -1.545  -1.465  1.00  0.00     0.112 A 
ATOM     31  C   UNL     1       6.611  -2.213   0.655  1.00  0.00     0.132 A 
ATOM     32  N   UNL     1       7.393  -2.391  -0.435  1.00  0.00    -0.263 NA
ATOM     33  Cl  UNL     1       4.766  -1.149   2.260  1.00  0.00    -0.082 Cl
ENDBRANCH  24  27
ENDBRANCH   3  23
TORSDOF 4
