REMARK SMILES Cc1ccc(-c2ccncc2Cl)c(NC(=O)c2sc3c(c(C)c(Cl)c4nncn43)c2N)n1
REMARK SMILES IDX 14 1 15 2 16 3 13 5 2 6 3 7 32 8 4 9 5 10 1 11 6 12 7 13
REMARK SMILES IDX 11 14 8 15 10 16 9 17 12 18 17 19 18 20 30 21 19 22 20 23
REMARK SMILES IDX 29 24 21 25 28 26 25 27 23 28 27 29 26 30 22 31 24 32 31 33
REMARK H PARENT 14 4 31 34 31 35
ROOT
ATOM      1  N   UNL     1      -1.242  -0.489   0.185  1.00  0.00    -0.305 N 
ATOM      2  C   UNL     1      -0.202  -1.373   0.399  1.00  0.00     0.269 C 
ATOM      3  O   UNL     1      -0.330  -2.568   0.652  1.00  0.00    -0.268 OA
ATOM      4  H   UNL     1      -0.977   0.465  -0.006  1.00  0.00     0.171 HD
ENDROOT
BRANCH   1   5
ATOM      5  C   UNL     1      -2.614  -0.789   0.179  1.00  0.00     0.141 A 
ATOM      6  C   UNL     1      -4.331  -2.347   0.387  1.00  0.00     0.040 A 
ATOM      7  C   UNL     1      -5.302  -1.383   0.160  1.00  0.00     0.024 A 
ATOM      8  N   UNL     1      -3.011  -2.057   0.401  1.00  0.00    -0.235 NA
ATOM      9  C   UNL     1      -4.895  -0.072  -0.061  1.00  0.00     0.014 A 
ATOM     10  C   UNL     1      -3.531   0.254  -0.057  1.00  0.00     0.026 A 
ATOM     11  C   UNL     1      -4.721  -3.774   0.628  1.00  0.00     0.067 C 
BRANCH  10  12
ATOM     12  C   UNL     1      -3.124   1.652  -0.281  1.00  0.00     0.007 A 
ATOM     13  C   UNL     1      -3.090   2.538   0.808  1.00  0.00     0.030 A 
ATOM     14  C   UNL     1      -2.747   2.142  -1.540  1.00  0.00     0.067 A 
ATOM     15  C   UNL     1      -2.676   3.845   0.604  1.00  0.00     0.111 A 
ATOM     16  C   UNL     1      -2.349   3.468  -1.643  1.00  0.00     0.132 A 
ATOM     17  N   UNL     1      -2.296   4.326  -0.597  1.00  0.00    -0.263 NA
ATOM     18  Cl  UNL     1      -2.737   1.156  -2.953  1.00  0.00    -0.082 Cl
ENDBRANCH  10  12
ENDBRANCH   1   5
BRANCH   2  19
ATOM     19  C   UNL     1       1.133  -0.758   0.311  1.00  0.00     0.118 A 
ATOM     20  S   UNL     1       1.326   0.948   0.145  1.00  0.00    -0.109 S 
ATOM     21  C   UNL     1       2.371  -1.400   0.373  1.00  0.00     0.065 A 
ATOM     22  C   UNL     1       2.991   0.792   0.154  1.00  0.00     0.113 A 
ATOM     23  C   UNL     1       3.476  -0.491   0.261  1.00  0.00     0.038 A 
ATOM     24  N   UNL     1       3.845   1.876   0.060  1.00  0.00    -0.271 N 
ATOM     25  C   UNL     1       4.925  -0.669   0.233  1.00  0.00    -0.016 C 
ATOM     26  C   UNL     1       3.621   3.219  -0.043  1.00  0.00     0.231 A 
ATOM     27  C   UNL     1       5.220   1.730   0.063  1.00  0.00     0.180 A 
ATOM     28  C   UNL     1       5.753   0.407   0.145  1.00  0.00     0.089 C 
ATOM     29  N   UNL     1       4.767   3.861  -0.091  1.00  0.00    -0.138 NA
ATOM     30  N   UNL     1       5.774   2.925  -0.024  1.00  0.00    -0.129 NA
ATOM     31  C   UNL     1       5.418  -2.090   0.273  1.00  0.00     0.047 C 
ATOM     32  Cl  UNL     1       7.479   0.280   0.117  1.00  0.00    -0.080 Cl
BRANCH  21  33
ATOM     33  N   UNL     1       2.460  -2.743   0.515  1.00  0.00    -0.397 N 
ATOM     34  H   UNL     1       1.592  -3.266   0.688  1.00  0.00     0.156 HD
ATOM     35  H   UNL     1       3.239  -3.183   0.991  1.00  0.00     0.156 HD
ENDBRANCH  21  33
ENDBRANCH   2  19
TORSDOF 4
