REMARK SMILES O=C(NC1CN(c2ccncc2Cl)C1)c1cncc(F)c1
REMARK SMILES IDX 4 1 5 2 6 3 14 4 3 5 1 6 2 7 15 9 16 10 21 11 17 12 19 13
REMARK SMILES IDX 18 14 20 15 7 16 8 17 12 18 9 19 11 20 10 21 13 22
REMARK H PARENT 3 8
ROOT
ATOM      1  C   UNL     1      -0.220   1.430   0.685  1.00  0.00     0.121 C 
ATOM      2  C   UNL     1      -1.110   0.341   1.305  1.00  0.00     0.143 C 
ATOM      3  N   UNL     1      -1.819   0.294   0.046  1.00  0.00    -0.366 N 
ATOM      4  C   UNL     1      -1.384   1.621  -0.305  1.00  0.00     0.143 C 
ENDROOT
BRANCH   1   5
ATOM      5  N   UNL     1       1.043   0.922   0.078  1.00  0.00    -0.346 N 
ATOM      6  O   UNL     1       2.186   0.881   2.063  1.00  0.00    -0.269 OA
ATOM      7  C   UNL     1       2.149   0.657   0.858  1.00  0.00     0.253 C 
ATOM      8  H   UNL     1       1.073   0.769  -0.922  1.00  0.00     0.164 HD
BRANCH   7   9
ATOM      9  C   UNL     1       3.338   0.098   0.180  1.00  0.00     0.061 A 
ATOM     10  C   UNL     1       3.245  -0.717  -0.944  1.00  0.00     0.125 A 
ATOM     11  C   UNL     1       4.608   0.361   0.700  1.00  0.00     0.056 A 
ATOM     12  N   UNL     1       4.318  -1.244  -1.588  1.00  0.00    -0.261 NA
ATOM     13  C   UNL     1       5.717  -0.173   0.061  1.00  0.00     0.142 A 
ATOM     14  C   UNL     1       5.535  -0.956  -1.066  1.00  0.00     0.150 A 
ATOM     15  F   UNL     1       6.947   0.069   0.530  1.00  0.00    -0.205 F 
ENDBRANCH   7   9
ENDBRANCH   1   5
BRANCH   3  16
ATOM     16  C   UNL     1      -3.086  -0.306  -0.179  1.00  0.00     0.059 A 
ATOM     17  C   UNL     1      -3.532  -1.291   0.720  1.00  0.00     0.047 A 
ATOM     18  C   UNL     1      -3.926  -0.013  -1.267  1.00  0.00     0.082 A 
ATOM     19  C   UNL     1      -4.763  -1.902   0.529  1.00  0.00     0.113 A 
ATOM     20  C   UNL     1      -5.144  -0.682  -1.369  1.00  0.00     0.133 A 
ATOM     21  N   UNL     1      -5.587  -1.615  -0.495  1.00  0.00    -0.263 NA
ATOM     22  Cl  UNL     1      -3.540   1.105  -2.523  1.00  0.00    -0.080 Cl
ENDBRANCH   3  16
TORSDOF 3
