REMARK SMILES Cc1c(Cl)c2nnc(C)n2c2sc(-c3cc(C(=O)NC4CC4)c(Cl)cn3)c(N)c12
REMARK SMILES IDX 1 1 2 2 3 3 4 4 5 5 6 6 7 7 8 8 9 9 10 10 11 11 12 12 13 13
REMARK SMILES IDX 27 14 29 15 28 16 14 19 15 20 26 21 16 22 25 23 23 24 24 25
REMARK SMILES IDX 17 26 18 27 19 28 20 30 21 31 22 32
REMARK H PARENT 28 17 28 18 19 29
ROOT
ATOM      1  C   UNL     1      -3.392   1.924   2.640  1.00  0.00     0.047 C 
ATOM      2  C   UNL     1      -3.511   2.286   1.185  1.00  0.00    -0.016 C 
ATOM      3  C   UNL     1      -4.375   3.227   0.727  1.00  0.00     0.089 C 
ATOM      4  Cl  UNL     1      -5.499   4.061   1.749  1.00  0.00    -0.080 Cl
ATOM      5  C   UNL     1      -4.392   3.594  -0.652  1.00  0.00     0.181 A 
ATOM      6  N   UNL     1      -5.124   4.457  -1.324  1.00  0.00    -0.129 NA
ATOM      7  N   UNL     1      -4.712   4.441  -2.628  1.00  0.00    -0.135 NA
ATOM      8  C   UNL     1      -3.730   3.569  -2.747  1.00  0.00     0.135 A 
ATOM      9  C   UNL     1      -3.026   3.278  -4.017  1.00  0.00     0.090 C 
ATOM     10  N   UNL     1      -3.485   2.988  -1.513  1.00  0.00    -0.268 N 
ATOM     11  C   UNL     1      -2.603   2.014  -1.052  1.00  0.00     0.113 A 
ATOM     12  S   UNL     1      -1.484   1.244  -2.028  1.00  0.00    -0.113 S 
ATOM     13  C   UNL     1      -0.931   0.276  -0.720  1.00  0.00     0.078 A 
ATOM     14  C   UNL     1      -1.651   0.540   0.442  1.00  0.00     0.062 A 
ATOM     15  C   UNL     1      -2.599   1.611   0.268  1.00  0.00     0.038 A 
ENDROOT
BRANCH  14  16
ATOM     16  N   UNL     1      -1.454  -0.163   1.587  1.00  0.00    -0.397 N 
ATOM     17  H   UNL     1      -2.185  -0.214   2.289  1.00  0.00     0.156 HD
ATOM     18  H   UNL     1      -0.956  -1.050   1.553  1.00  0.00     0.156 HD
ENDBRANCH  14  16
BRANCH  13  19
ATOM     19  C   UNL     1       0.176  -0.654  -0.964  1.00  0.00     0.083 A 
ATOM     20  C   UNL     1       1.295  -0.690  -0.145  1.00  0.00     0.045 A 
ATOM     21  N   UNL     1       0.032  -1.473  -2.030  1.00  0.00    -0.254 NA
ATOM     22  C   UNL     1       2.326  -1.605  -0.420  1.00  0.00     0.062 A 
ATOM     23  C   UNL     1       1.043  -2.334  -2.290  1.00  0.00     0.133 A 
ATOM     24  C   UNL     1       2.201  -2.443  -1.530  1.00  0.00     0.072 A 
ATOM     25  Cl  UNL     1       3.387  -3.579  -2.051  1.00  0.00    -0.082 Cl
BRANCH  22  26
ATOM     26  C   UNL     1       3.482  -1.574   0.521  1.00  0.00     0.253 C 
ATOM     27  O   UNL     1       3.690  -0.555   1.173  1.00  0.00    -0.269 OA
ATOM     28  N   UNL     1       4.244  -2.716   0.649  1.00  0.00    -0.349 N 
ATOM     29  H   UNL     1       4.065  -3.511   0.045  1.00  0.00     0.164 HD
BRANCH  28  30
ATOM     30  C   UNL     1       5.371  -2.786   1.524  1.00  0.00     0.082 C 
ATOM     31  C   UNL     1       6.054  -4.099   1.792  1.00  0.00     0.027 C 
ATOM     32  C   UNL     1       5.248  -3.439   2.872  1.00  0.00     0.027 C 
ENDBRANCH  28  30
ENDBRANCH  22  26
ENDBRANCH  13  19
TORSDOF 4
