REMARK SMILES Cc1c(Cl)c2nnc(C)n2c2sc(C(=O)NC3C[NH+](C4(F)CCCC4)C3)c(N)c12
REMARK SMILES IDX 14 1 15 2 16 3 13 5 2 6 3 7 29 8 5 9 27 10 11 11 6 12 10 13
REMARK SMILES IDX 12 14 7 15 8 16 1 17 4 18 9 19 28 20 17 23 18 24 26 25 19 26
REMARK SMILES IDX 20 28 22 29 25 30 23 31 24 32 21 33
REMARK H PARENT 16 4 28 21 28 22 19 27
ROOT
ATOM      1  C   UNL     1      -0.251  -0.758  -1.184  1.00  0.00     0.264 C 
ATOM      2  O   UNL     1       0.177  -1.876  -1.476  1.00  0.00    -0.268 OA
ATOM      3  N   UNL     1       0.631   0.316  -1.166  1.00  0.00    -0.338 N 
ATOM      4  H   UNL     1       0.200   1.227  -1.033  1.00  0.00     0.164 HD
ENDROOT
BRANCH   1   5
ATOM      5  C   UNL     1      -1.639  -0.478  -0.835  1.00  0.00     0.118 A 
ATOM      6  C   UNL     1      -5.236  -1.279   0.034  1.00  0.00    -0.016 C 
ATOM      7  C   UNL     1      -6.265  -0.433   0.301  1.00  0.00     0.089 C 
ATOM      8  C   UNL     1      -3.915  -0.755  -0.297  1.00  0.00     0.038 A 
ATOM      9  C   UNL     1      -6.072   0.980   0.280  1.00  0.00     0.181 A 
ATOM     10  C   UNL     1      -2.675  -1.389  -0.659  1.00  0.00     0.065 A 
ATOM     11  C   UNL     1      -3.745   0.615  -0.283  1.00  0.00     0.113 A 
ATOM     12  N   UNL     1      -6.893   1.985   0.500  1.00  0.00    -0.129 NA
ATOM     13  N   UNL     1      -4.806   1.475  -0.005  1.00  0.00    -0.268 N 
ATOM     14  S   UNL     1      -2.187   1.134  -0.615  1.00  0.00    -0.109 S 
ATOM     15  N   UNL     1      -6.189   3.149   0.366  1.00  0.00    -0.135 NA
ATOM     16  C   UNL     1      -4.941   2.852   0.064  1.00  0.00     0.135 A 
ATOM     17  C   UNL     1      -5.370  -2.776   0.099  1.00  0.00     0.047 C 
ATOM     18  Cl  UNL     1      -7.863  -0.975   0.692  1.00  0.00    -0.080 Cl
ATOM     19  C   UNL     1      -3.885   3.863  -0.164  1.00  0.00     0.090 C 
BRANCH  10  20
ATOM     20  N   UNL     1      -2.476  -2.719  -0.811  1.00  0.00    -0.397 N 
ATOM     21  H   UNL     1      -3.232  -3.359  -1.031  1.00  0.00     0.156 HD
ATOM     22  H   UNL     1      -1.594  -3.060  -1.203  1.00  0.00     0.156 HD
ENDBRANCH  10  20
ENDBRANCH   1   5
BRANCH   3  23
ATOM     23  C   UNL     1       2.031   0.180  -1.641  1.00  0.00     0.192 C 
ATOM     24  C   UNL     1       2.829  -1.071  -1.168  1.00  0.00     0.296 C 
ATOM     25  C   UNL     1       3.093   0.976  -0.838  1.00  0.00     0.296 C 
ATOM     26  N   UNL     1       3.984  -0.179  -0.947  1.00  0.00    -0.300 N 
ATOM     27  H   UNL     1       4.606  -0.168  -1.765  1.00  0.00     0.351 HD
BRANCH  26  28
ATOM     28  C   UNL     1       4.766  -0.541   0.234  1.00  0.00     0.240 C 
ATOM     29  C   UNL     1       4.064  -0.698   1.575  1.00  0.00     0.106 C 
ATOM     30  C   UNL     1       5.852   0.488   0.520  1.00  0.00     0.106 C 
ATOM     31  C   UNL     1       5.223  -0.689   2.573  1.00  0.00     0.010 C 
ATOM     32  C   UNL     1       6.343   0.123   1.920  1.00  0.00     0.010 C 
ATOM     33  F   UNL     1       5.369  -1.715  -0.082  1.00  0.00    -0.183 F 
ENDBRANCH  26  28
ENDBRANCH   3  23
TORSDOF 4
