REMARK SMILES O=C(NC1Cc2ccccc2C1)c1cncc(C2CC2)c1
REMARK SMILES IDX 13 1 14 2 15 3 16 4 17 5 21 6 2 7 1 8 3 9 4 11 5 12 12 13
REMARK SMILES IDX 6 14 11 15 7 16 10 17 8 18 9 19 18 20 19 21 20 22
REMARK H PARENT 3 10
ROOT
ATOM      1  C   UNL     1      -1.981  -1.594  -0.401  1.00  0.00     0.058 A 
ATOM      2  C   UNL     1      -2.727  -2.687  -0.812  1.00  0.00     0.124 A 
ATOM      3  N   UNL     1      -4.079  -2.718  -0.794  1.00  0.00    -0.264 NA
ATOM      4  C   UNL     1      -4.703  -1.611  -0.323  1.00  0.00     0.115 A 
ATOM      5  C   UNL     1      -4.070  -0.452   0.142  1.00  0.00    -0.026 A 
ATOM      6  C   UNL     1      -2.666  -0.476   0.091  1.00  0.00     0.021 A 
ENDROOT
BRANCH   1   7
ATOM      7  C   UNL     1      -0.503  -1.673  -0.475  1.00  0.00     0.253 C 
ATOM      8  O   UNL     1       0.053  -2.765  -0.468  1.00  0.00    -0.269 OA
ATOM      9  N   UNL     1       0.174  -0.474  -0.580  1.00  0.00    -0.349 N 
ATOM     10  H   UNL     1      -0.349   0.346  -0.854  1.00  0.00     0.164 HD
BRANCH   9  11
ATOM     11  C   UNL     1       1.618  -0.448  -0.778  1.00  0.00     0.091 C 
ATOM     12  C   UNL     1       2.417  -1.018   0.420  1.00  0.00     0.061 C 
ATOM     13  C   UNL     1       2.154   0.984  -1.004  1.00  0.00     0.061 C 
ATOM     14  C   UNL     1       3.702  -0.256   0.318  1.00  0.00    -0.043 A 
ATOM     15  C   UNL     1       3.554   0.875  -0.489  1.00  0.00    -0.043 A 
ATOM     16  C   UNL     1       4.908  -0.538   0.938  1.00  0.00     0.004 A 
ATOM     17  C   UNL     1       4.608   1.750  -0.694  1.00  0.00     0.004 A 
ATOM     18  C   UNL     1       5.980   0.331   0.729  1.00  0.00     0.000 A 
ATOM     19  C   UNL     1       5.831   1.468  -0.081  1.00  0.00     0.000 A 
ENDBRANCH   9  11
ENDBRANCH   1   7
BRANCH   5  20
ATOM     20  C   UNL     1      -4.884   0.717   0.661  1.00  0.00     0.021 C 
ATOM     21  C   UNL     1      -4.419   2.142   0.483  1.00  0.00     0.009 C 
ATOM     22  C   UNL     1      -4.419   1.522   1.851  1.00  0.00     0.009 C 
ENDBRANCH   5  20
TORSDOF 3
