REMARK SMILES Cc1c(Cl)c2nncn2c2sc(-c3cncc(C(=O)NC4Cc5ccccc5C4)c3)c(N)c12
REMARK SMILES IDX 1 1 2 2 3 3 4 4 5 5 6 6 7 7 8 8 9 9 10 10 11 11 12 12 31 13
REMARK SMILES IDX 33 14 32 15 13 18 14 19 30 20 15 21 17 22 16 23 18 24 19 25
REMARK SMILES IDX 20 26 21 28 22 29 29 30 23 31 28 32 24 33 27 34 25 35 26 36
REMARK H PARENT 32 16 32 17 20 27
ROOT
ATOM      1  C   UNL     1      -5.596   1.929   2.519  1.00  0.00     0.047 C 
ATOM      2  C   UNL     1      -6.043   0.823   1.604  1.00  0.00    -0.016 C 
ATOM      3  C   UNL     1      -7.261   0.222   1.701  1.00  0.00     0.089 C 
ATOM      4  Cl  UNL     1      -8.465   0.693   2.853  1.00  0.00    -0.080 Cl
ATOM      5  C   UNL     1      -7.611  -0.859   0.837  1.00  0.00     0.180 A 
ATOM      6  N   UNL     1      -8.693  -1.604   0.712  1.00  0.00    -0.129 NA
ATOM      7  N   UNL     1      -8.468  -2.524  -0.287  1.00  0.00    -0.138 NA
ATOM      8  C   UNL     1      -7.256  -2.322  -0.750  1.00  0.00     0.231 A 
ATOM      9  N   UNL     1      -6.669  -1.284  -0.083  1.00  0.00    -0.271 N 
ATOM     10  C   UNL     1      -5.431  -0.680  -0.199  1.00  0.00     0.112 A 
ATOM     11  S   UNL     1      -4.283  -1.185  -1.304  1.00  0.00    -0.114 S 
ATOM     12  C   UNL     1      -3.196   0.042  -0.776  1.00  0.00     0.062 A 
ATOM     13  C   UNL     1      -3.759   0.826   0.231  1.00  0.00     0.060 A 
ATOM     14  C   UNL     1      -5.076   0.382   0.602  1.00  0.00     0.038 A 
ENDROOT
BRANCH  13  15
ATOM     15  N   UNL     1      -3.096   1.879   0.764  1.00  0.00    -0.397 N 
ATOM     16  H   UNL     1      -2.233   2.217   0.342  1.00  0.00     0.156 HD
ATOM     17  H   UNL     1      -3.569   2.625   1.259  1.00  0.00     0.156 HD
ENDBRANCH  13  15
BRANCH  12  18
ATOM     18  C   UNL     1      -1.870   0.118  -1.396  1.00  0.00     0.013 A 
ATOM     19  C   UNL     1      -1.705   0.271  -2.772  1.00  0.00     0.120 A 
ATOM     20  C   UNL     1      -0.709   0.052  -0.618  1.00  0.00     0.026 A 
ATOM     21  N   UNL     1      -0.503   0.364  -3.394  1.00  0.00    -0.263 NA
ATOM     22  C   UNL     1       0.545   0.131  -1.228  1.00  0.00     0.058 A 
ATOM     23  C   UNL     1       0.595   0.302  -2.605  1.00  0.00     0.124 A 
BRANCH  22  24
ATOM     24  C   UNL     1       1.767   0.080  -0.398  1.00  0.00     0.253 C 
ATOM     25  O   UNL     1       1.729   0.483   0.758  1.00  0.00    -0.269 OA
ATOM     26  N   UNL     1       2.894  -0.460  -0.986  1.00  0.00    -0.349 N 
ATOM     27  H   UNL     1       2.778  -1.019  -1.821  1.00  0.00     0.164 HD
BRANCH  26  28
ATOM     28  C   UNL     1       4.111  -0.667  -0.209  1.00  0.00     0.091 C 
ATOM     29  C   UNL     1       4.756   0.647   0.295  1.00  0.00     0.061 C 
ATOM     30  C   UNL     1       5.208  -1.396  -1.020  1.00  0.00     0.061 C 
ATOM     31  C   UNL     1       6.202   0.266   0.371  1.00  0.00    -0.043 A 
ATOM     32  C   UNL     1       6.458  -0.891  -0.371  1.00  0.00    -0.043 A 
ATOM     33  C   UNL     1       7.223   0.934   1.027  1.00  0.00     0.004 A 
ATOM     34  C   UNL     1       7.739  -1.406  -0.474  1.00  0.00     0.004 A 
ATOM     35  C   UNL     1       8.517   0.416   0.939  1.00  0.00     0.000 A 
ATOM     36  C   UNL     1       8.773  -0.746   0.194  1.00  0.00     0.000 A 
ENDBRANCH  26  28
ENDBRANCH  22  24
ENDBRANCH  12  18
TORSDOF 4
