REMARK SMILES Cc1ccc(NC(=O)c2sc3c(c(C)c(Cl)c4nnc(C)n43)c2N)c(C2CC2)n1
REMARK SMILES IDX 9 1 10 2 11 3 12 4 13 5 14 6 15 7 16 8 17 9 18 10 19 11
REMARK SMILES IDX 20 12 21 13 22 14 23 15 7 16 6 17 8 18 5 20 2 21 3 22 29 23
REMARK SMILES IDX 4 24 25 25 1 26 26 27 27 28 28 29 24 30
REMARK H PARENT 6 19 24 31 24 32
ROOT
ATOM      1  C   UNL     1      -1.071   0.334   0.997  1.00  0.00     0.118 A 
ATOM      2  S   UNL     1      -1.216  -0.632  -0.416  1.00  0.00    -0.109 S 
ATOM      3  C   UNL     1      -2.848  -0.884  -0.143  1.00  0.00     0.113 A 
ATOM      4  C   UNL     1      -3.343  -0.293   1.002  1.00  0.00     0.038 A 
ATOM      5  C   UNL     1      -4.747  -0.513   1.330  1.00  0.00    -0.016 C 
ATOM      6  C   UNL     1      -5.228   0.064   2.633  1.00  0.00     0.047 C 
ATOM      7  C   UNL     1      -5.541  -1.236   0.499  1.00  0.00     0.089 C 
ATOM      8  Cl  UNL     1      -7.219  -1.533   0.810  1.00  0.00    -0.080 Cl
ATOM      9  C   UNL     1      -5.016  -1.809  -0.698  1.00  0.00     0.181 A 
ATOM     10  N   UNL     1      -5.573  -2.531  -1.647  1.00  0.00    -0.129 NA
ATOM     11  N   UNL     1      -4.611  -2.842  -2.567  1.00  0.00    -0.135 NA
ATOM     12  C   UNL     1      -3.470  -2.308  -2.177  1.00  0.00     0.135 A 
ATOM     13  C   UNL     1      -2.198  -2.433  -2.925  1.00  0.00     0.090 C 
ATOM     14  N   UNL     1      -3.668  -1.629  -0.987  1.00  0.00    -0.268 N 
ATOM     15  C   UNL     1      -2.295   0.447   1.651  1.00  0.00     0.065 A 
ENDROOT
BRANCH   1  16
ATOM     16  C   UNL     1       0.209   0.952   1.373  1.00  0.00     0.268 C 
ATOM     17  N   UNL     1       1.292   0.546   0.611  1.00  0.00    -0.320 N 
ATOM     18  O   UNL     1       0.281   1.762   2.294  1.00  0.00    -0.268 OA
ATOM     19  H   UNL     1       1.081  -0.131  -0.111  1.00  0.00     0.170 HD
BRANCH  17  20
ATOM     20  C   UNL     1       2.646   0.953   0.699  1.00  0.00     0.063 A 
ATOM     21  C   UNL     1       5.319   1.646   0.763  1.00  0.00     0.038 A 
ATOM     22  C   UNL     1       4.449   2.236   1.665  1.00  0.00     0.025 A 
ATOM     23  N   UNL     1       4.906   0.740  -0.151  1.00  0.00    -0.256 NA
ATOM     24  C   UNL     1       3.102   1.884   1.631  1.00  0.00     0.030 A 
ATOM     25  C   UNL     1       3.588   0.396  -0.196  1.00  0.00     0.067 A 
ATOM     26  C   UNL     1       6.775   1.999   0.774  1.00  0.00     0.067 C 
BRANCH  25  27
ATOM     27  C   UNL     1       3.198  -0.639  -1.240  1.00  0.00     0.040 C 
ATOM     28  C   UNL     1       2.374  -0.238  -2.445  1.00  0.00     0.011 C 
ATOM     29  C   UNL     1       3.820  -0.591  -2.619  1.00  0.00     0.011 C 
ENDBRANCH  25  27
ENDBRANCH  17  20
ENDBRANCH   1  16
BRANCH  15  30
ATOM     30  N   UNL     1      -2.425   1.184   2.780  1.00  0.00    -0.397 N 
ATOM     31  H   UNL     1      -3.295   1.646   3.018  1.00  0.00     0.156 HD
ATOM     32  H   UNL     1      -1.626   1.755   3.078  1.00  0.00     0.156 HD
ENDBRANCH  15  30
TORSDOF 4
