REMARK SMILES Cc1c(Cl)nnc2sc(C(=O)Nc3cnn(-c4ccncc4Cl)c3)c(N)c12
REMARK SMILES IDX 10 1 11 2 12 3 9 5 2 6 3 7 27 8 5 9 25 10 7 11 6 12 8 13
REMARK SMILES IDX 1 14 4 15 26 16 13 19 14 20 24 21 15 22 16 23 17 24 18 25
REMARK SMILES IDX 22 26 19 27 21 28 20 29 23 30
REMARK H PARENT 12 4 26 17 26 18
ROOT
ATOM      1  C   UNL     1      -0.807   0.525   0.483  1.00  0.00     0.268 C 
ATOM      2  O   UNL     1      -0.831   1.590   1.099  1.00  0.00    -0.268 OA
ATOM      3  N   UNL     1       0.366  -0.072   0.049  1.00  0.00    -0.318 N 
ATOM      4  H   UNL     1       0.294  -0.949  -0.451  1.00  0.00     0.170 HD
ENDROOT
BRANCH   1   5
ATOM      5  C   UNL     1      -2.035  -0.206   0.159  1.00  0.00     0.118 A 
ATOM      6  C   UNL     1      -5.751  -0.791  -0.096  1.00  0.00     0.001 A 
ATOM      7  C   UNL     1      -6.295  -2.002  -0.538  1.00  0.00     0.155 A 
ATOM      8  C   UNL     1      -4.329  -0.767  -0.063  1.00  0.00     0.043 A 
ATOM      9  N   UNL     1      -5.581  -3.068  -0.967  1.00  0.00    -0.137 NA
ATOM     10  C   UNL     1      -3.345   0.197   0.372  1.00  0.00     0.065 A 
ATOM     11  C   UNL     1      -3.676  -1.896  -0.542  1.00  0.00     0.149 A 
ATOM     12  N   UNL     1      -4.272  -3.015  -0.992  1.00  0.00    -0.138 NA
ATOM     13  S   UNL     1      -1.986  -1.771  -0.536  1.00  0.00    -0.106 S 
ATOM     14  C   UNL     1      -6.620   0.353   0.337  1.00  0.00     0.048 C 
ATOM     15  Cl  UNL     1      -7.992  -2.303  -0.577  1.00  0.00    -0.060 Cl
BRANCH  10  16
ATOM     16  N   UNL     1      -3.648   1.390   0.938  1.00  0.00    -0.397 N 
ATOM     17  H   UNL     1      -2.886   1.957   1.330  1.00  0.00     0.156 HD
ATOM     18  H   UNL     1      -4.511   1.535   1.452  1.00  0.00     0.156 HD
ENDBRANCH  10  16
ENDBRANCH   1   5
BRANCH   3  19
ATOM     19  C   UNL     1       1.632   0.444   0.249  1.00  0.00     0.080 A 
ATOM     20  C   UNL     1       2.079   1.609   0.888  1.00  0.00     0.161 A 
ATOM     21  C   UNL     1       2.785  -0.163  -0.188  1.00  0.00     0.141 A 
ATOM     22  N   UNL     1       3.406   1.725   0.857  1.00  0.00    -0.174 NA
ATOM     23  N   UNL     1       3.853   0.637   0.193  1.00  0.00    -0.237 N 
BRANCH  23  24
ATOM     24  C   UNL     1       5.242   0.410  -0.061  1.00  0.00     0.086 A 
ATOM     25  C   UNL     1       5.611  -0.685  -0.867  1.00  0.00     0.050 A 
ATOM     26  C   UNL     1       6.265   1.228   0.446  1.00  0.00     0.085 A 
ATOM     27  C   UNL     1       6.953  -0.916  -1.133  1.00  0.00     0.113 A 
ATOM     28  C   UNL     1       7.580   0.900   0.113  1.00  0.00     0.133 A 
ATOM     29  N   UNL     1       7.947  -0.148  -0.661  1.00  0.00    -0.263 NA
ATOM     30  Cl  UNL     1       6.087   2.601   1.477  1.00  0.00    -0.080 Cl
ENDBRANCH  23  24
ENDBRANCH   3  19
TORSDOF 4
