REMARK SMILES Cc1ccc(C(=O)NC2CC2)c(C2Cc3ccccc3C2)n1
REMARK SMILES IDX 1 1 2 2 3 3 4 4 5 5 12 6 22 7 13 8 14 9 21 10 15 11 20 12
REMARK SMILES IDX 16 13 19 14 17 15 18 16 6 17 7 18 8 19 9 21 10 22 11 23
REMARK H PARENT 8 20
ROOT
ATOM      1  C   UNL     1      -0.665   4.035  -2.865  1.00  0.00     0.067 C 
ATOM      2  C   UNL     1      -0.048   3.220  -1.769  1.00  0.00     0.038 A 
ATOM      3  C   UNL     1       1.227   3.515  -1.310  1.00  0.00     0.024 A 
ATOM      4  C   UNL     1       1.763   2.736  -0.290  1.00  0.00     0.017 A 
ATOM      5  C   UNL     1       1.010   1.684   0.244  1.00  0.00     0.061 A 
ATOM      6  C   UNL     1      -0.275   1.444  -0.252  1.00  0.00     0.057 A 
ATOM      7  N   UNL     1      -0.787   2.205  -1.260  1.00  0.00    -0.257 NA
ENDROOT
BRANCH   6   8
ATOM      8  C   UNL     1      -1.147   0.313   0.252  1.00  0.00     0.048 C 
ATOM      9  C   UNL     1      -2.610   0.323  -0.270  1.00  0.00     0.046 C 
ATOM     10  C   UNL     1      -0.600  -1.089  -0.109  1.00  0.00     0.046 C 
ATOM     11  C   UNL     1      -2.984  -1.122  -0.143  1.00  0.00    -0.044 A 
ATOM     12  C   UNL     1      -1.842  -1.924  -0.060  1.00  0.00    -0.044 A 
ATOM     13  C   UNL     1      -4.251  -1.680  -0.153  1.00  0.00     0.004 A 
ATOM     14  C   UNL     1      -1.942  -3.303   0.017  1.00  0.00     0.004 A 
ATOM     15  C   UNL     1      -4.362  -3.069  -0.063  1.00  0.00     0.000 A 
ATOM     16  C   UNL     1      -3.216  -3.875   0.021  1.00  0.00     0.000 A 
ENDBRANCH   6   8
BRANCH   5  17
ATOM     17  C   UNL     1       1.602   0.869   1.326  1.00  0.00     0.253 C 
ATOM     18  O   UNL     1       0.998   0.698   2.377  1.00  0.00    -0.269 OA
ATOM     19  N   UNL     1       2.843   0.336   1.036  1.00  0.00    -0.349 N 
ATOM     20  H   UNL     1       3.233   0.463   0.110  1.00  0.00     0.164 HD
BRANCH  19  21
ATOM     21  C   UNL     1       3.521  -0.534   1.944  1.00  0.00     0.082 C 
ATOM     22  C   UNL     1       3.431  -2.025   1.776  1.00  0.00     0.027 C 
ATOM     23  C   UNL     1       4.726  -1.318   1.503  1.00  0.00     0.027 C 
ENDBRANCH  19  21
ENDBRANCH   5  17
TORSDOF 3
