REMARK SMILES Cc1c(Cl)c2nnc(C)n2c2sc(-n3cc(C(=O)NC4Cc5ccccc5C4)cn3)c(N)c12
REMARK SMILES IDX 1 1 2 2 3 3 4 4 5 5 6 6 7 7 8 8 9 9 10 10 11 11 12 12 13 13
REMARK SMILES IDX 31 14 33 15 32 16 14 19 15 20 30 21 16 22 29 23 17 24 18 25
REMARK SMILES IDX 19 26 20 28 21 29 28 30 22 31 27 32 23 33 26 34 24 35 25 36
REMARK H PARENT 32 17 32 18 19 27
ROOT
ATOM      1  C   UNL     1      -5.749   2.728  -0.809  1.00  0.00     0.047 C 
ATOM      2  C   UNL     1      -5.854   1.351  -0.212  1.00  0.00    -0.016 C 
ATOM      3  C   UNL     1      -7.043   0.771   0.093  1.00  0.00     0.089 C 
ATOM      4  Cl  UNL     1      -8.563   1.588  -0.065  1.00  0.00    -0.080 Cl
ATOM      5  C   UNL     1      -7.102  -0.578   0.552  1.00  0.00     0.181 A 
ATOM      6  N   UNL     1      -8.112  -1.343   0.911  1.00  0.00    -0.129 NA
ATOM      7  N   UNL     1      -7.617  -2.576   1.237  1.00  0.00    -0.135 NA
ATOM      8  C   UNL     1      -6.308  -2.558   1.076  1.00  0.00     0.135 A 
ATOM      9  C   UNL     1      -5.425  -3.720   1.329  1.00  0.00     0.090 C 
ATOM     10  N   UNL     1      -5.919  -1.300   0.648  1.00  0.00    -0.268 N 
ATOM     11  C   UNL     1      -4.694  -0.708   0.350  1.00  0.00     0.114 A 
ATOM     12  S   UNL     1      -3.230  -1.509   0.452  1.00  0.00    -0.095 S 
ATOM     13  C   UNL     1      -2.380  -0.108  -0.033  1.00  0.00     0.143 A 
ATOM     14  C   UNL     1      -3.217   0.992  -0.167  1.00  0.00     0.079 A 
ATOM     15  C   UNL     1      -4.606   0.613  -0.044  1.00  0.00     0.040 A 
ENDROOT
BRANCH  14  16
ATOM     16  N   UNL     1      -2.782   2.265  -0.354  1.00  0.00    -0.396 N 
ATOM     17  H   UNL     1      -3.399   3.044  -0.150  1.00  0.00     0.156 HD
ATOM     18  H   UNL     1      -1.841   2.523  -0.063  1.00  0.00     0.156 HD
ENDBRANCH  14  16
BRANCH  13  19
ATOM     19  N   UNL     1      -0.998  -0.217  -0.237  1.00  0.00    -0.228 N 
ATOM     20  C   UNL     1      -0.125   0.658  -0.843  1.00  0.00     0.130 A 
ATOM     21  N   UNL     1      -0.341  -1.329   0.191  1.00  0.00    -0.175 NA
ATOM     22  C   UNL     1       1.147   0.123  -0.761  1.00  0.00     0.078 A 
ATOM     23  C   UNL     1       0.937  -1.110  -0.118  1.00  0.00     0.149 A 
BRANCH  22  24
ATOM     24  C   UNL     1       2.351   0.750  -1.277  1.00  0.00     0.254 C 
ATOM     25  O   UNL     1       2.322   1.830  -1.857  1.00  0.00    -0.269 OA
ATOM     26  N   UNL     1       3.521   0.060  -1.047  1.00  0.00    -0.349 N 
ATOM     27  H   UNL     1       3.521  -0.685  -0.364  1.00  0.00     0.164 HD
BRANCH  26  28
ATOM     28  C   UNL     1       4.825   0.656  -1.363  1.00  0.00     0.091 C 
ATOM     29  C   UNL     1       5.280   1.619  -0.241  1.00  0.00     0.061 C 
ATOM     30  C   UNL     1       5.917  -0.435  -1.447  1.00  0.00     0.061 C 
ATOM     31  C   UNL     1       6.034   0.684   0.658  1.00  0.00    -0.043 A 
ATOM     32  C   UNL     1       6.396  -0.482  -0.027  1.00  0.00    -0.043 A 
ATOM     33  C   UNL     1       6.404   0.882   1.977  1.00  0.00     0.004 A 
ATOM     34  C   UNL     1       7.136  -1.475   0.592  1.00  0.00     0.004 A 
ATOM     35  C   UNL     1       7.139  -0.120   2.614  1.00  0.00     0.000 A 
ATOM     36  C   UNL     1       7.502  -1.289   1.927  1.00  0.00     0.000 A 
ENDBRANCH  26  28
ENDBRANCH  22  24
ENDBRANCH  13  19
TORSDOF 4
