REMARK SMILES Cc1c(Cl)c2nnc(C)n2c2sc(C(=O)NC3CN(c4cc(F)nc(F)c4)C3)c(N)c12
REMARK SMILES IDX 14 1 15 2 16 3 13 5 2 6 3 7 31 8 5 9 29 10 11 11 6 12 10 13
REMARK SMILES IDX 12 14 7 15 8 16 1 17 4 18 9 19 30 20 17 23 18 24 28 25 19 26
REMARK SMILES IDX 20 27 21 28 27 29 22 30 25 31 24 32 23 33 26 34
REMARK H PARENT 16 4 30 21 30 22
ROOT
ATOM      1  C   UNL     1       0.089   1.043  -1.041  1.00  0.00     0.263 C 
ATOM      2  O   UNL     1       0.435   2.195  -1.306  1.00  0.00    -0.268 OA
ATOM      3  N   UNL     1       1.016   0.016  -1.027  1.00  0.00    -0.345 N 
ATOM      4  H   UNL     1       0.667  -0.913  -0.826  1.00  0.00     0.164 HD
ENDROOT
BRANCH   1   5
ATOM      5  C   UNL     1      -1.290   0.678  -0.723  1.00  0.00     0.118 A 
ATOM      6  C   UNL     1      -5.019   1.203  -0.336  1.00  0.00    -0.016 C 
ATOM      7  C   UNL     1      -5.966   0.341   0.114  1.00  0.00     0.089 C 
ATOM      8  C   UNL     1      -3.619   0.798  -0.393  1.00  0.00     0.038 A 
ATOM      9  C   UNL     1      -5.616  -0.981   0.522  1.00  0.00     0.181 A 
ATOM     10  C   UNL     1      -2.419   1.490  -0.776  1.00  0.00     0.065 A 
ATOM     11  C   UNL     1      -3.307  -0.495  -0.023  1.00  0.00     0.113 A 
ATOM     12  N   UNL     1      -6.336  -1.979   0.989  1.00  0.00    -0.129 NA
ATOM     13  N   UNL     1      -4.286  -1.375   0.432  1.00  0.00    -0.268 N 
ATOM     14  S   UNL     1      -1.689  -0.899  -0.172  1.00  0.00    -0.109 S 
ATOM     15  N   UNL     1      -5.503  -3.041   1.208  1.00  0.00    -0.135 NA
ATOM     16  C   UNL     1      -4.277  -2.687   0.875  1.00  0.00     0.135 A 
ATOM     17  C   UNL     1      -5.336   2.586  -0.835  1.00  0.00     0.047 C 
ATOM     18  Cl  UNL     1      -7.646   0.748   0.222  1.00  0.00    -0.080 Cl
ATOM     19  C   UNL     1      -3.102  -3.581   0.978  1.00  0.00     0.090 C 
BRANCH  10  20
ATOM     20  N   UNL     1      -2.336   2.784  -1.163  1.00  0.00    -0.397 N 
ATOM     21  H   UNL     1      -2.983   3.489  -0.828  1.00  0.00     0.156 HD
ATOM     22  H   UNL     1      -1.405   3.193  -1.308  1.00  0.00     0.156 HD
ENDBRANCH  10  20
ENDBRANCH   1   5
BRANCH   3  23
ATOM     23  C   UNL     1       2.438   0.236  -1.365  1.00  0.00     0.121 C 
ATOM     24  C   UNL     1       3.212   1.189  -0.433  1.00  0.00     0.143 C 
ATOM     25  C   UNL     1       3.408  -0.843  -0.845  1.00  0.00     0.143 C 
ATOM     26  N   UNL     1       4.282   0.228  -0.459  1.00  0.00    -0.367 N 
BRANCH  26  27
ATOM     27  C   UNL     1       5.393   0.163   0.403  1.00  0.00     0.046 A 
ATOM     28  C   UNL     1       5.856   1.295   1.071  1.00  0.00     0.086 A 
ATOM     29  C   UNL     1       6.089  -1.029   0.593  1.00  0.00     0.086 A 
ATOM     30  C   UNL     1       6.961   1.179   1.898  1.00  0.00     0.217 A 
ATOM     31  C   UNL     1       7.183  -1.037   1.443  1.00  0.00     0.217 A 
ATOM     32  N   UNL     1       7.637   0.038   2.109  1.00  0.00    -0.190 NA
ATOM     33  F   UNL     1       7.390   2.277   2.538  1.00  0.00    -0.185 F 
ATOM     34  F   UNL     1       7.838  -2.194   1.619  1.00  0.00    -0.185 F 
ENDBRANCH  26  27
ENDBRANCH   3  23
TORSDOF 4
