REMARK SMILES Cc1c(Cl)c2nnc(C)n2c2sc(C(=O)N3CC([NH2+]C4Cc5ccccc5C4)C3)c(N)c12
REMARK SMILES IDX 1 1 2 2 3 3 4 4 5 5 6 6 7 7 8 8 9 9 10 10 11 11 12 12 13 13
REMARK SMILES IDX 30 14 32 15 31 16 14 19 15 20 16 21 17 22 29 23 18 24 19 25
REMARK SMILES IDX 20 28 21 29 28 30 22 31 27 32 23 33 26 34 24 35 25 36
REMARK H PARENT 31 17 31 18 19 26 19 27
ROOT
ATOM      1  C   UNL     1       6.144   2.558  -1.074  1.00  0.00     0.047 C 
ATOM      2  C   UNL     1       5.703   1.298  -0.380  1.00  0.00    -0.016 C 
ATOM      3  C   UNL     1       6.571   0.336   0.029  1.00  0.00     0.089 C 
ATOM      4  Cl  UNL     1       8.288   0.470  -0.146  1.00  0.00    -0.080 Cl
ATOM      5  C   UNL     1       6.095  -0.867   0.629  1.00  0.00     0.181 A 
ATOM      6  N   UNL     1       6.720  -1.932   1.085  1.00  0.00    -0.129 NA
ATOM      7  N   UNL     1       5.783  -2.810   1.553  1.00  0.00    -0.135 NA
ATOM      8  C   UNL     1       4.590  -2.278   1.386  1.00  0.00     0.135 A 
ATOM      9  C   UNL     1       3.329  -2.931   1.804  1.00  0.00     0.090 C 
ATOM     10  N   UNL     1       4.725  -1.039   0.783  1.00  0.00    -0.268 N 
ATOM     11  C   UNL     1       3.827  -0.061   0.360  1.00  0.00     0.113 A 
ATOM     12  S   UNL     1       2.163  -0.210   0.474  1.00  0.00    -0.109 S 
ATOM     13  C   UNL     1       1.925   1.336  -0.228  1.00  0.00     0.118 A 
ATOM     14  C   UNL     1       3.138   1.968  -0.478  1.00  0.00     0.065 A 
ATOM     15  C   UNL     1       4.267   1.123  -0.199  1.00  0.00     0.038 A 
ENDROOT
BRANCH  14  16
ATOM     16  N   UNL     1       3.186   3.236  -0.954  1.00  0.00    -0.397 N 
ATOM     17  H   UNL     1       4.000   3.820  -0.785  1.00  0.00     0.156 HD
ATOM     18  H   UNL     1       2.344   3.816  -0.879  1.00  0.00     0.156 HD
ENDBRANCH  14  16
BRANCH  13  19
ATOM     19  C   UNL     1       0.589   1.883  -0.408  1.00  0.00     0.266 C 
ATOM     20  O   UNL     1       0.332   3.080  -0.271  1.00  0.00    -0.268 OA
ATOM     21  N   UNL     1      -0.431   1.007  -0.783  1.00  0.00    -0.326 N 
ATOM     22  C   UNL     1      -1.726   1.495  -1.283  1.00  0.00     0.186 C 
ATOM     23  C   UNL     1      -0.344  -0.000  -1.846  1.00  0.00     0.186 C 
ATOM     24  C   UNL     1      -1.892   0.097  -1.924  1.00  0.00     0.222 C 
BRANCH  24  25
ATOM     25  N   UNL     1      -2.578  -0.897  -1.031  1.00  0.00    -0.338 N 
ATOM     26  H   UNL     1      -2.582  -0.568  -0.049  1.00  0.00     0.346 HD
ATOM     27  H   UNL     1      -2.059  -1.785  -1.014  1.00  0.00     0.346 HD
BRANCH  25  28
ATOM     28  C   UNL     1      -4.005  -1.163  -1.496  1.00  0.00     0.191 C 
ATOM     29  C   UNL     1      -4.580  -2.303  -0.617  1.00  0.00     0.101 C 
ATOM     30  C   UNL     1      -4.917   0.054  -1.223  1.00  0.00     0.101 C 
ATOM     31  C   UNL     1      -5.068  -1.519   0.563  1.00  0.00    -0.039 A 
ATOM     32  C   UNL     1      -5.256  -0.173   0.219  1.00  0.00    -0.039 A 
ATOM     33  C   UNL     1      -5.356  -1.979   1.835  1.00  0.00     0.004 A 
ATOM     34  C   UNL     1      -5.735   0.742   1.139  1.00  0.00     0.004 A 
ATOM     35  C   UNL     1      -5.826  -1.060   2.775  1.00  0.00     0.000 A 
ATOM     36  C   UNL     1      -6.013   0.289   2.430  1.00  0.00     0.000 A 
ENDBRANCH  25  28
ENDBRANCH  24  25
ENDBRANCH  13  19
TORSDOF 4
