REMARK SMILES Cc1c(Cl)c2nnc(C)n2c2sc(NC(=O)C3Cc4ccccc4C3)c(N)c12
REMARK SMILES IDX 1 1 2 2 3 3 4 4 5 5 6 6 7 7 8 8 9 9 10 10 11 11 12 12 13 13
REMARK SMILES IDX 26 14 28 15 27 16 14 19 15 20 16 21 17 23 18 24 25 25 19 26
REMARK SMILES IDX 24 27 20 28 23 29 21 30 22 31
REMARK H PARENT 27 17 27 18 14 22
ROOT
ATOM      1  C   UNL     1      -2.466  -1.361   3.275  1.00  0.00     0.047 C 
ATOM      2  C   UNL     1      -3.125  -0.599   2.159  1.00  0.00    -0.016 C 
ATOM      3  C   UNL     1      -4.447  -0.292   2.150  1.00  0.00     0.089 C 
ATOM      4  Cl  UNL     1      -5.547  -0.802   3.388  1.00  0.00    -0.080 Cl
ATOM      5  C   UNL     1      -5.010   0.492   1.099  1.00  0.00     0.181 A 
ATOM      6  N   UNL     1      -6.238   0.907   0.870  1.00  0.00    -0.129 NA
ATOM      7  N   UNL     1      -6.229   1.653  -0.276  1.00  0.00    -0.135 NA
ATOM      8  C   UNL     1      -4.996   1.691  -0.743  1.00  0.00     0.135 A 
ATOM      9  C   UNL     1      -4.593   2.410  -1.973  1.00  0.00     0.090 C 
ATOM     10  N   UNL     1      -4.170   0.958   0.093  1.00  0.00    -0.268 N 
ATOM     11  C   UNL     1      -2.815   0.641   0.091  1.00  0.00     0.114 A 
ATOM     12  S   UNL     1      -1.743   1.164  -1.082  1.00  0.00    -0.097 S 
ATOM     13  C   UNL     1      -0.456   0.349  -0.340  1.00  0.00     0.121 A 
ATOM     14  C   UNL     1      -0.862  -0.360   0.785  1.00  0.00     0.077 A 
ATOM     15  C   UNL     1      -2.255  -0.147   1.079  1.00  0.00     0.040 A 
ENDROOT
BRANCH  14  16
ATOM     16  N   UNL     1      -0.001  -1.144   1.485  1.00  0.00    -0.396 N 
ATOM     17  H   UNL     1       0.879  -1.444   1.073  1.00  0.00     0.156 HD
ATOM     18  H   UNL     1      -0.350  -1.871   2.099  1.00  0.00     0.156 HD
ENDBRANCH  14  16
BRANCH  13  19
ATOM     19  N   UNL     1       0.835   0.409  -0.835  1.00  0.00    -0.316 N 
ATOM     20  C   UNL     1       1.282   1.086  -1.954  1.00  0.00     0.228 C 
ATOM     21  O   UNL     1       0.600   1.752  -2.729  1.00  0.00    -0.274 OA
ATOM     22  H   UNL     1       1.519  -0.070  -0.266  1.00  0.00     0.170 HD
BRANCH  20  23
ATOM     23  C   UNL     1       2.786   0.939  -2.224  1.00  0.00     0.087 C 
ATOM     24  C   UNL     1       3.173  -0.525  -2.512  1.00  0.00     0.049 C 
ATOM     25  C   UNL     1       3.649   1.419  -1.042  1.00  0.00     0.049 C 
ATOM     26  C   UNL     1       3.730  -0.967  -1.193  1.00  0.00    -0.044 A 
ATOM     27  C   UNL     1       4.001   0.128  -0.366  1.00  0.00    -0.044 A 
ATOM     28  C   UNL     1       3.987  -2.260  -0.773  1.00  0.00     0.004 A 
ATOM     29  C   UNL     1       4.532  -0.048   0.900  1.00  0.00     0.004 A 
ATOM     30  C   UNL     1       4.514  -2.448   0.506  1.00  0.00     0.000 A 
ATOM     31  C   UNL     1       4.785  -1.350   1.337  1.00  0.00     0.000 A 
ENDBRANCH  20  23
ENDBRANCH  13  19
TORSDOF 3
