REMARK SMILES Cc1c(Cl)c2nncn2c2sc(-n3cc(C(=O)NC4CC4)cn3)c(N)c12
REMARK SMILES IDX 1 1 2 2 3 3 4 4 5 5 6 6 7 7 8 8 9 9 10 10 11 11 12 12 24 13
REMARK SMILES IDX 26 14 25 15 13 18 14 19 23 20 15 21 22 22 16 23 17 24 18 25
REMARK SMILES IDX 19 27 20 28 21 29
REMARK H PARENT 25 16 25 17 18 26
ROOT
ATOM      1  C   UNL     1      -4.734  -1.893   1.645  1.00  0.00     0.047 C 
ATOM      2  C   UNL     1      -4.702  -0.616   0.850  1.00  0.00    -0.016 C 
ATOM      3  C   UNL     1      -5.810   0.126   0.580  1.00  0.00     0.089 C 
ATOM      4  Cl  UNL     1      -7.405  -0.333   1.075  1.00  0.00    -0.080 Cl
ATOM      5  C   UNL     1      -5.707   1.355  -0.140  1.00  0.00     0.180 A 
ATOM      6  N   UNL     1      -6.593   2.251  -0.533  1.00  0.00    -0.129 NA
ATOM      7  N   UNL     1      -5.921   3.262  -1.184  1.00  0.00    -0.138 NA
ATOM      8  C   UNL     1      -4.642   2.962  -1.174  1.00  0.00     0.231 A 
ATOM      9  N   UNL     1      -4.448   1.771  -0.534  1.00  0.00    -0.271 N 
ATOM     10  C   UNL     1      -3.313   1.027  -0.272  1.00  0.00     0.114 A 
ATOM     11  S   UNL     1      -1.780   1.517  -0.731  1.00  0.00    -0.095 S 
ATOM     12  C   UNL     1      -1.107   0.094  -0.069  1.00  0.00     0.143 A 
ATOM     13  C   UNL     1      -2.066  -0.736   0.499  1.00  0.00     0.079 A 
ATOM     14  C   UNL     1      -3.386  -0.176   0.396  1.00  0.00     0.040 A 
ENDROOT
BRANCH  13  15
ATOM     15  N   UNL     1      -1.758  -1.920   1.081  1.00  0.00    -0.396 N 
ATOM     16  H   UNL     1      -2.387  -2.712   1.025  1.00  0.00     0.156 HD
ATOM     17  H   UNL     1      -0.782  -2.231   0.989  1.00  0.00     0.156 HD
ENDBRANCH  13  15
BRANCH  12  18
ATOM     18  N   UNL     1       0.276  -0.100  -0.177  1.00  0.00    -0.228 N 
ATOM     19  C   UNL     1       1.260   0.707  -0.703  1.00  0.00     0.130 A 
ATOM     20  N   UNL     1       0.804  -1.272   0.276  1.00  0.00    -0.175 NA
ATOM     21  C   UNL     1       2.470   0.050  -0.575  1.00  0.00     0.078 A 
ATOM     22  C   UNL     1       2.112  -1.165   0.039  1.00  0.00     0.149 A 
BRANCH  21  23
ATOM     23  C   UNL     1       3.754   0.578  -1.006  1.00  0.00     0.254 C 
ATOM     24  O   UNL     1       3.850   1.681  -1.537  1.00  0.00    -0.269 OA
ATOM     25  N   UNL     1       4.840  -0.246  -0.779  1.00  0.00    -0.349 N 
ATOM     26  H   UNL     1       4.709  -1.150  -0.351  1.00  0.00     0.164 HD
BRANCH  25  27
ATOM     27  C   UNL     1       6.170   0.135  -1.138  1.00  0.00     0.082 C 
ATOM     28  C   UNL     1       7.351  -0.678  -0.682  1.00  0.00     0.027 C 
ATOM     29  C   UNL     1       7.110   0.685  -0.101  1.00  0.00     0.027 C 
ENDBRANCH  25  27
ENDBRANCH  21  23
ENDBRANCH  12  18
TORSDOF 4
