REMARK SMILES O=C(NC1Cc2ccccc2C1)c1cnn(C2CC2)c1
REMARK SMILES IDX 13 1 14 2 15 3 16 4 20 5 2 6 1 7 3 8 4 10 5 11 12 12 6 13
REMARK SMILES IDX 11 14 7 15 10 16 8 17 9 18 17 19 18 20 19 21
REMARK H PARENT 3 9
ROOT
ATOM      1  C   UNL     1      -1.976  -0.808  -1.480  1.00  0.00     0.077 A 
ATOM      2  C   UNL     1      -2.857  -1.625  -2.228  1.00  0.00     0.149 A 
ATOM      3  N   UNL     1      -4.106  -1.615  -1.756  1.00  0.00    -0.180 NA
ATOM      4  N   UNL     1      -4.037  -0.783  -0.708  1.00  0.00    -0.269 N 
ATOM      5  C   UNL     1      -2.787  -0.272  -0.495  1.00  0.00     0.122 A 
ENDROOT
BRANCH   1   6
ATOM      6  C   UNL     1      -0.562  -0.605  -1.735  1.00  0.00     0.254 C 
ATOM      7  O   UNL     1      -0.002  -1.106  -2.703  1.00  0.00    -0.269 OA
ATOM      8  N   UNL     1       0.100   0.169  -0.805  1.00  0.00    -0.349 N 
ATOM      9  H   UNL     1      -0.368   0.371   0.066  1.00  0.00     0.164 HD
BRANCH   8  10
ATOM     10  C   UNL     1       1.544   0.334  -0.862  1.00  0.00     0.091 C 
ATOM     11  C   UNL     1       2.039   1.517  -0.001  1.00  0.00     0.061 C 
ATOM     12  C   UNL     1       2.310  -0.917  -0.372  1.00  0.00     0.061 C 
ATOM     13  C   UNL     1       3.414   1.065   0.377  1.00  0.00    -0.043 A 
ATOM     14  C   UNL     1       3.567  -0.310   0.169  1.00  0.00    -0.043 A 
ATOM     15  C   UNL     1       4.442   1.825   0.910  1.00  0.00     0.004 A 
ATOM     16  C   UNL     1       4.751  -0.953   0.488  1.00  0.00     0.004 A 
ATOM     17  C   UNL     1       5.644   1.186   1.225  1.00  0.00     0.000 A 
ATOM     18  C   UNL     1       5.797  -0.193   1.015  1.00  0.00     0.000 A 
ENDBRANCH   8  10
ENDBRANCH   1   6
BRANCH   4  19
ATOM     19  C   UNL     1      -5.240  -0.484   0.106  1.00  0.00     0.107 C 
ATOM     20  C   UNL     1      -5.528   0.877   0.696  1.00  0.00     0.029 C 
ATOM     21  C   UNL     1      -5.203  -0.277   1.602  1.00  0.00     0.029 C 
ENDBRANCH   4  19
TORSDOF 3
