REMARK SMILES Cc1c(Cl)c2nnc(C)n2c2sc(C(=O)NC3CN(c4ccncc4Cl)C3)c(N)c12
REMARK SMILES IDX 14 1 15 2 16 3 13 5 2 6 3 7 30 8 5 9 28 10 11 11 6 12 10 13
REMARK SMILES IDX 12 14 7 15 8 16 1 17 4 18 9 19 29 20 17 23 18 24 27 25 19 26
REMARK SMILES IDX 20 27 21 28 25 29 22 30 24 31 23 32 26 33
REMARK H PARENT 16 4 29 21 29 22
ROOT
ATOM      1  C   UNL     1      -0.020   1.791   0.549  1.00  0.00     0.263 C 
ATOM      2  O   UNL     1       0.221   2.969   0.283  1.00  0.00    -0.268 OA
ATOM      3  N   UNL     1       0.925   1.003   1.178  1.00  0.00    -0.345 N 
ATOM      4  H   UNL     1       0.718   0.015   1.266  1.00  0.00     0.164 HD
ENDROOT
BRANCH   1   5
ATOM      5  C   UNL     1      -1.286   1.141   0.215  1.00  0.00     0.118 A 
ATOM      6  C   UNL     1      -4.862   0.930  -1.010  1.00  0.00    -0.016 C 
ATOM      7  C   UNL     1      -5.661  -0.159  -1.146  1.00  0.00     0.089 C 
ATOM      8  C   UNL     1      -3.494   0.786  -0.526  1.00  0.00     0.038 A 
ATOM      9  C   UNL     1      -5.186  -1.460  -0.803  1.00  0.00     0.181 A 
ATOM     10  C   UNL     1      -2.427   1.729  -0.323  1.00  0.00     0.065 A 
ATOM     11  C   UNL     1      -3.066  -0.477  -0.168  1.00  0.00     0.113 A 
ATOM     12  N   UNL     1      -5.755  -2.646  -0.850  1.00  0.00    -0.129 NA
ATOM     13  N   UNL     1      -3.895  -1.588  -0.305  1.00  0.00    -0.268 N 
ATOM     14  S   UNL     1      -1.504  -0.548   0.430  1.00  0.00    -0.109 S 
ATOM     15  N   UNL     1      -4.860  -3.568  -0.383  1.00  0.00    -0.135 NA
ATOM     16  C   UNL     1      -3.748  -2.942  -0.052  1.00  0.00     0.135 A 
ATOM     17  C   UNL     1      -5.325   2.332  -1.299  1.00  0.00     0.047 C 
ATOM     18  Cl  UNL     1      -7.291  -0.074  -1.725  1.00  0.00    -0.080 Cl
ATOM     19  C   UNL     1      -2.550  -3.616   0.497  1.00  0.00     0.090 C 
BRANCH  10  20
ATOM     20  N   UNL     1      -2.474   3.054  -0.598  1.00  0.00    -0.397 N 
ATOM     21  H   UNL     1      -1.608   3.599  -0.509  1.00  0.00     0.156 HD
ATOM     22  H   UNL     1      -3.049   3.426  -1.345  1.00  0.00     0.156 HD
ENDBRANCH  10  20
ENDBRANCH   1   5
BRANCH   3  23
ATOM     23  C   UNL     1       2.297   1.495   1.462  1.00  0.00     0.121 C 
ATOM     24  C   UNL     1       3.224   0.466   2.131  1.00  0.00     0.143 C 
ATOM     25  C   UNL     1       3.275   1.382   0.280  1.00  0.00     0.143 C 
ATOM     26  N   UNL     1       3.646   0.079   0.800  1.00  0.00    -0.366 N 
BRANCH  26  27
ATOM     27  C   UNL     1       4.893  -0.543   0.520  1.00  0.00     0.059 A 
ATOM     28  C   UNL     1       4.820  -1.787  -0.127  1.00  0.00     0.047 A 
ATOM     29  C   UNL     1       6.167  -0.039   0.820  1.00  0.00     0.082 A 
ATOM     30  C   UNL     1       5.985  -2.468  -0.440  1.00  0.00     0.113 A 
ATOM     31  C   UNL     1       7.276  -0.801   0.464  1.00  0.00     0.133 A 
ATOM     32  N   UNL     1       7.217  -2.003  -0.157  1.00  0.00    -0.263 NA
ATOM     33  Cl  UNL     1       6.456   1.470   1.603  1.00  0.00    -0.080 Cl
ENDBRANCH  26  27
ENDBRANCH   3  23
TORSDOF 4
