REMARK SMILES O=C(Nc1ccc(F)c(F)c1)C1CN(c2cncc(F)c2)C1
REMARK SMILES IDX 12 1 13 2 14 3 22 4 2 5 1 6 3 7 4 9 5 10 11 11 6 12 9 13
REMARK SMILES IDX 7 14 10 15 8 16 15 17 16 18 21 19 17 20 19 21 18 22 20 23
REMARK H PARENT 3 8
ROOT
ATOM      1  C   UNL     1      -0.326   0.403  -0.517  1.00  0.00     0.117 C 
ATOM      2  C   UNL     1      -1.295  -0.701  -0.979  1.00  0.00     0.132 C 
ATOM      3  N   UNL     1      -2.346   0.104  -0.419  1.00  0.00    -0.368 N 
ATOM      4  C   UNL     1      -1.439   0.756   0.486  1.00  0.00     0.132 C 
ENDROOT
BRANCH   1   5
ATOM      5  C   UNL     1       1.036  -0.045   0.063  1.00  0.00     0.231 C 
ATOM      6  O   UNL     1       1.127  -0.906   0.941  1.00  0.00    -0.274 OA
ATOM      7  N   UNL     1       2.116   0.617  -0.504  1.00  0.00    -0.326 N 
ATOM      8  H   UNL     1       1.902   1.303  -1.217  1.00  0.00     0.169 HD
BRANCH   7   9
ATOM      9  C   UNL     1       3.487   0.451  -0.208  1.00  0.00     0.044 A 
ATOM     10  C   UNL     1       3.983  -0.447   0.744  1.00  0.00     0.029 A 
ATOM     11  C   UNL     1       4.392   1.245  -0.925  1.00  0.00     0.068 A 
ATOM     12  C   UNL     1       5.360  -0.551   0.978  1.00  0.00     0.044 A 
ATOM     13  C   UNL     1       5.760   1.136  -0.687  1.00  0.00     0.160 A 
ATOM     14  C   UNL     1       6.243   0.243   0.259  1.00  0.00     0.158 A 
ATOM     15  F   UNL     1       6.608   1.906  -1.383  1.00  0.00    -0.204 F 
ATOM     16  F   UNL     1       7.559   0.142   0.485  1.00  0.00    -0.204 F 
ENDBRANCH   7   9
ENDBRANCH   1   5
BRANCH   3  17
ATOM     17  C   UNL     1      -3.665  -0.307  -0.143  1.00  0.00     0.058 A 
ATOM     18  C   UNL     1      -4.283  -1.349  -0.845  1.00  0.00     0.137 A 
ATOM     19  C   UNL     1      -4.438   0.332   0.829  1.00  0.00     0.068 A 
ATOM     20  N   UNL     1      -5.552  -1.785  -0.638  1.00  0.00    -0.260 NA
ATOM     21  C   UNL     1      -5.740  -0.092   1.063  1.00  0.00     0.143 A 
ATOM     22  C   UNL     1      -6.253  -1.140   0.321  1.00  0.00     0.150 A 
ATOM     23  F   UNL     1      -6.488   0.512   1.995  1.00  0.00    -0.205 F 
ENDBRANCH   3  17
TORSDOF 3
