REMARK SMILES Cc1c(Cl)c2nncn2c2sc(N3CC(NC(=O)c4cncc(F)c4)C3)c(N)c12
REMARK SMILES IDX 13 1 14 2 15 3 26 4 12 5 2 6 3 7 29 8 5 9 27 10 10 11 6 12
REMARK SMILES IDX 9 13 11 14 7 15 8 16 1 17 4 18 28 19 16 22 17 23 18 24 19 26
REMARK SMILES IDX 20 27 25 28 21 29 23 30 22 31 24 32
REMARK H PARENT 28 20 28 21 16 25
ROOT
ATOM      1  N   UNL     1      -0.013   0.745  -0.711  1.00  0.00    -0.357 N 
ATOM      2  C   UNL     1       0.452   1.487  -1.861  1.00  0.00     0.144 C 
ATOM      3  C   UNL     1       1.617   1.977  -0.984  1.00  0.00     0.121 C 
ATOM      4  C   UNL     1       0.678   1.642   0.191  1.00  0.00     0.144 C 
ENDROOT
BRANCH   1   5
ATOM      5  C   UNL     1      -1.295   0.291  -0.527  1.00  0.00     0.117 A 
ATOM      6  C   UNL     1      -4.313  -0.944   1.432  1.00  0.00    -0.016 C 
ATOM      7  C   UNL     1      -5.559  -1.250   0.980  1.00  0.00     0.089 C 
ATOM      8  C   UNL     1      -3.274  -0.507   0.503  1.00  0.00     0.040 A 
ATOM      9  C   UNL     1      -5.880  -1.131  -0.406  1.00  0.00     0.180 A 
ATOM     10  C   UNL     1      -1.881  -0.191   0.652  1.00  0.00     0.076 A 
ATOM     11  C   UNL     1      -3.621  -0.368  -0.820  1.00  0.00     0.114 A 
ATOM     12  N   UNL     1      -6.977  -1.359  -1.104  1.00  0.00    -0.129 NA
ATOM     13  N   UNL     1      -4.894  -0.676  -1.263  1.00  0.00    -0.271 N 
ATOM     14  S   UNL     1      -2.417   0.171  -1.841  1.00  0.00    -0.097 S 
ATOM     15  N   UNL     1      -6.720  -1.051  -2.421  1.00  0.00    -0.138 NA
ATOM     16  C   UNL     1      -5.474  -0.642  -2.499  1.00  0.00     0.231 A 
ATOM     17  C   UNL     1      -3.934  -0.971   2.888  1.00  0.00     0.047 C 
ATOM     18  Cl  UNL     1      -6.839  -1.785   2.015  1.00  0.00    -0.080 Cl
BRANCH  10  19
ATOM     19  N   UNL     1      -1.163  -0.345   1.795  1.00  0.00    -0.396 N 
ATOM     20  H   UNL     1      -0.149  -0.352   1.705  1.00  0.00     0.156 HD
ATOM     21  H   UNL     1      -1.446  -1.034   2.483  1.00  0.00     0.156 HD
ENDBRANCH  10  19
ENDBRANCH   1   5
BRANCH   3  22
ATOM     22  N   UNL     1       2.849   1.141  -1.055  1.00  0.00    -0.346 N 
ATOM     23  C   UNL     1       3.940   1.413  -0.255  1.00  0.00     0.253 C 
ATOM     24  O   UNL     1       3.981   2.370   0.509  1.00  0.00    -0.269 OA
ATOM     25  H   UNL     1       2.870   0.359  -1.696  1.00  0.00     0.164 HD
BRANCH  23  26
ATOM     26  C   UNL     1       5.100   0.498  -0.356  1.00  0.00     0.061 A 
ATOM     27  C   UNL     1       6.351   0.972   0.035  1.00  0.00     0.125 A 
ATOM     28  C   UNL     1       5.007  -0.824  -0.795  1.00  0.00     0.056 A 
ATOM     29  N   UNL     1       7.492   0.235  -0.010  1.00  0.00    -0.261 NA
ATOM     30  C   UNL     1       6.162  -1.594  -0.842  1.00  0.00     0.142 A 
ATOM     31  C   UNL     1       7.368  -1.038  -0.451  1.00  0.00     0.150 A 
ATOM     32  F   UNL     1       6.101  -2.865  -1.258  1.00  0.00    -0.205 F 
ENDBRANCH  23  26
ENDBRANCH   3  22
TORSDOF 4
