REMARK SMILES COc1nc(C)ccc1NC(=O)c1sc2c(c(C)c(Cl)c3nncn32)c1N
REMARK SMILES IDX 10 1 11 2 12 3 9 5 3 6 4 7 5 8 8 9 7 10 6 11 2 12 1 13 13 14
REMARK SMILES IDX 14 15 26 16 15 17 16 18 25 19 17 20 24 21 21 22 19 23 23 24
REMARK SMILES IDX 22 25 18 26 20 27 27 28
REMARK H PARENT 10 4 27 29 27 30
ROOT
ATOM      1  N   UNL     1      -1.303   0.267   0.008  1.00  0.00    -0.317 N 
ATOM      2  C   UNL     1      -0.278   0.834   0.740  1.00  0.00     0.268 C 
ATOM      3  O   UNL     1      -0.447   1.716   1.581  1.00  0.00    -0.268 OA
ATOM      4  H   UNL     1      -1.048  -0.455  -0.660  1.00  0.00     0.170 HD
ENDROOT
BRANCH   1   5
ATOM      5  C   UNL     1      -2.685   0.551   0.051  1.00  0.00     0.104 A 
ATOM      6  C   UNL     1      -3.536  -0.170  -0.799  1.00  0.00     0.237 A 
ATOM      7  N   UNL     1      -4.877  -0.003  -0.864  1.00  0.00    -0.217 NA
ATOM      8  C   UNL     1      -5.420   0.927  -0.046  1.00  0.00     0.041 A 
ATOM      9  C   UNL     1      -3.274   1.499   0.878  1.00  0.00     0.034 A 
ATOM     10  C   UNL     1      -4.656   1.691   0.831  1.00  0.00     0.026 A 
ATOM     11  C   UNL     1      -6.906   1.119  -0.112  1.00  0.00     0.067 C 
BRANCH   6  12
ATOM     12  O   UNL     1      -2.929  -1.114  -1.619  1.00  0.00    -0.480 OA
ATOM     13  C   UNL     1      -3.858  -1.799  -2.454  1.00  0.00     0.280 C 
ENDBRANCH   6  12
ENDBRANCH   1   5
BRANCH   2  14
ATOM     14  C   UNL     1       1.060   0.302   0.447  1.00  0.00     0.118 A 
ATOM     15  S   UNL     1       1.275  -1.059  -0.589  1.00  0.00    -0.109 S 
ATOM     16  C   UNL     1       2.283   0.753   0.943  1.00  0.00     0.065 A 
ATOM     17  C   UNL     1       2.930  -1.009  -0.366  1.00  0.00     0.113 A 
ATOM     18  C   UNL     1       3.399  -0.004   0.448  1.00  0.00     0.038 A 
ATOM     19  N   UNL     1       3.793  -1.913  -0.957  1.00  0.00    -0.271 N 
ATOM     20  C   UNL     1       4.844   0.096   0.634  1.00  0.00    -0.016 C 
ATOM     21  C   UNL     1       3.585  -2.984  -1.779  1.00  0.00     0.231 A 
ATOM     22  C   UNL     1       5.162  -1.854  -0.769  1.00  0.00     0.180 A 
ATOM     23  C   UNL     1       5.680  -0.804   0.049  1.00  0.00     0.089 C 
ATOM     24  N   UNL     1       4.732  -3.552  -2.075  1.00  0.00    -0.138 NA
ATOM     25  N   UNL     1       5.726  -2.841  -1.439  1.00  0.00    -0.129 NA
ATOM     26  C   UNL     1       5.327   1.253   1.465  1.00  0.00     0.047 C 
ATOM     27  Cl  UNL     1       7.401  -0.760   0.229  1.00  0.00    -0.080 Cl
BRANCH  16  28
ATOM     28  N   UNL     1       2.356   1.804   1.793  1.00  0.00    -0.397 N 
ATOM     29  H   UNL     1       3.096   1.890   2.479  1.00  0.00     0.156 HD
ATOM     30  H   UNL     1       1.478   2.190   2.161  1.00  0.00     0.156 HD
ENDBRANCH  16  28
ENDBRANCH   2  14
TORSDOF 4
