REMARK SMILES Cc1ccc(C(=O)NC2CC2)c(-c2ccc(F)c(F)c2)n1
REMARK SMILES IDX 1 1 2 2 3 3 4 4 5 5 12 6 21 7 13 8 14 9 20 10 15 11 18 12
REMARK SMILES IDX 16 13 19 14 17 15 6 16 7 17 8 18 9 20 10 21 11 22
REMARK H PARENT 8 19
ROOT
ATOM      1  C   UNL     1      -3.342   3.657   0.144  1.00  0.00     0.067 C 
ATOM      2  C   UNL     1      -2.186   2.808  -0.293  1.00  0.00     0.038 A 
ATOM      3  C   UNL     1      -1.309   3.269  -1.266  1.00  0.00     0.024 A 
ATOM      4  C   UNL     1      -0.243   2.458  -1.640  1.00  0.00     0.018 A 
ATOM      5  C   UNL     1      -0.082   1.209  -1.035  1.00  0.00     0.066 A 
ATOM      6  C   UNL     1      -1.024   0.786  -0.096  1.00  0.00     0.083 A 
ATOM      7  N   UNL     1      -2.053   1.592   0.292  1.00  0.00    -0.252 NA
ENDROOT
BRANCH   6   8
ATOM      8  C   UNL     1      -1.042  -0.542   0.545  1.00  0.00     0.004 A 
ATOM      9  C   UNL     1      -0.963  -1.731  -0.208  1.00  0.00     0.013 A 
ATOM     10  C   UNL     1      -1.172  -0.653   1.942  1.00  0.00     0.052 A 
ATOM     11  C   UNL     1      -0.987  -2.984   0.414  1.00  0.00     0.043 A 
ATOM     12  C   UNL     1      -1.195  -1.903   2.555  1.00  0.00     0.159 A 
ATOM     13  C   UNL     1      -1.099  -3.061   1.796  1.00  0.00     0.158 A 
ATOM     14  F   UNL     1      -1.306  -1.977   3.888  1.00  0.00    -0.204 F 
ATOM     15  F   UNL     1      -1.117  -4.262   2.390  1.00  0.00    -0.204 F 
ENDBRANCH   6   8
BRANCH   5  16
ATOM     16  C   UNL     1       1.098   0.412  -1.423  1.00  0.00     0.253 C 
ATOM     17  O   UNL     1       1.322   0.208  -2.610  1.00  0.00    -0.269 OA
ATOM     18  N   UNL     1       1.906  -0.007  -0.384  1.00  0.00    -0.349 N 
ATOM     19  H   UNL     1       1.686   0.272   0.565  1.00  0.00     0.164 HD
BRANCH  18  20
ATOM     20  C   UNL     1       3.095  -0.767  -0.603  1.00  0.00     0.082 C 
ATOM     21  C   UNL     1       3.869  -1.329   0.557  1.00  0.00     0.027 C 
ATOM     22  C   UNL     1       3.109  -2.249  -0.352  1.00  0.00     0.027 C 
ENDBRANCH  18  20
ENDBRANCH   5  16
TORSDOF 3
