REMARK SMILES Cc1c(Cl)c2nncn2c2sc(C(=O)NC(=O)C3Cc4ccccc4C3)c(N)c12
REMARK SMILES IDX 1 1 2 2 3 3 4 4 5 5 6 6 7 7 8 8 9 9 10 10 11 11 12 12 27 13
REMARK SMILES IDX 29 14 28 15 13 18 14 19 15 20 16 21 17 22 18 24 19 25 26 26
REMARK SMILES IDX 20 27 25 28 21 29 24 30 22 31 23 32
REMARK H PARENT 28 16 28 17 15 23
ROOT
ATOM      1  C   UNL     1      -6.097  -1.850   0.301  1.00  0.00     0.047 C 
ATOM      2  C   UNL     1      -5.439  -0.551  -0.078  1.00  0.00    -0.016 C 
ATOM      3  C   UNL     1      -6.134   0.558  -0.448  1.00  0.00     0.089 C 
ATOM      4  Cl  UNL     1      -7.860   0.601  -0.576  1.00  0.00    -0.080 Cl
ATOM      5  C   UNL     1      -5.454   1.776  -0.752  1.00  0.00     0.180 A 
ATOM      6  N   UNL     1      -5.863   2.972  -1.130  1.00  0.00    -0.129 NA
ATOM      7  N   UNL     1      -4.758   3.782  -1.267  1.00  0.00    -0.138 NA
ATOM      8  C   UNL     1      -3.699   3.064  -0.970  1.00  0.00     0.231 A 
ATOM      9  N   UNL     1      -4.075   1.793  -0.642  1.00  0.00    -0.271 N 
ATOM     10  C   UNL     1      -3.353   0.673  -0.271  1.00  0.00     0.113 A 
ATOM     11  S   UNL     1      -1.687   0.675  -0.124  1.00  0.00    -0.109 S 
ATOM     12  C   UNL     1      -1.691  -0.992   0.312  1.00  0.00     0.118 A 
ATOM     13  C   UNL     1      -2.988  -1.506   0.326  1.00  0.00     0.065 A 
ATOM     14  C   UNL     1      -3.981  -0.521   0.002  1.00  0.00     0.038 A 
ENDROOT
BRANCH  13  15
ATOM     15  N   UNL     1      -3.226  -2.802   0.631  1.00  0.00    -0.397 N 
ATOM     16  H   UNL     1      -4.033  -3.305   0.281  1.00  0.00     0.156 HD
ATOM     17  H   UNL     1      -2.425  -3.437   0.736  1.00  0.00     0.156 HD
ENDBRANCH  13  15
BRANCH  12  18
ATOM     18  C   UNL     1      -0.442  -1.713   0.587  1.00  0.00     0.270 C 
ATOM     19  O   UNL     1      -0.424  -2.932   0.740  1.00  0.00    -0.268 OA
ATOM     20  N   UNL     1       0.695  -0.919   0.628  1.00  0.00    -0.291 N 
ATOM     21  C   UNL     1       1.974  -1.344   0.947  1.00  0.00     0.230 C 
ATOM     22  O   UNL     1       2.268  -2.464   1.344  1.00  0.00    -0.274 OA
ATOM     23  H   UNL     1       0.553   0.064   0.454  1.00  0.00     0.173 HD
BRANCH  21  24
ATOM     24  C   UNL     1       3.002  -0.233   0.817  1.00  0.00     0.087 C 
ATOM     25  C   UNL     1       4.430  -0.686   1.186  1.00  0.00     0.049 C 
ATOM     26  C   UNL     1       3.088   0.318  -0.621  1.00  0.00     0.049 C 
ATOM     27  C   UNL     1       5.257   0.249   0.361  1.00  0.00    -0.044 A 
ATOM     28  C   UNL     1       4.497   0.815  -0.667  1.00  0.00    -0.044 A 
ATOM     29  C   UNL     1       6.605   0.535   0.493  1.00  0.00     0.004 A 
ATOM     30  C   UNL     1       5.068   1.680  -1.585  1.00  0.00     0.004 A 
ATOM     31  C   UNL     1       7.188   1.416  -0.420  1.00  0.00     0.000 A 
ATOM     32  C   UNL     1       6.424   1.984  -1.452  1.00  0.00     0.000 A 
ENDBRANCH  21  24
ENDBRANCH  12  18
TORSDOF 3
