REMARK SMILES O=C(NC1CN(c2ccc(F)c(F)c2)C1)c1ccncc1Cl
REMARK SMILES IDX 4 1 5 2 6 3 15 4 3 5 1 6 2 7 16 9 17 10 21 11 18 12 20 13
REMARK SMILES IDX 19 14 22 15 7 16 8 17 14 18 9 19 12 20 10 21 13 22 11 23
REMARK H PARENT 3 8
ROOT
ATOM      1  C   UNL     1      -0.004  -1.319  -1.117  1.00  0.00     0.121 C 
ATOM      2  C   UNL     1      -1.096  -1.727  -0.107  1.00  0.00     0.143 C 
ATOM      3  N   UNL     1      -1.521  -0.353  -0.121  1.00  0.00    -0.367 N 
ATOM      4  C   UNL     1      -0.925  -0.118  -1.413  1.00  0.00     0.143 C 
ENDROOT
BRANCH   1   5
ATOM      5  N   UNL     1       1.304  -0.956  -0.509  1.00  0.00    -0.346 N 
ATOM      6  O   UNL     1       2.326  -0.449  -2.507  1.00  0.00    -0.269 OA
ATOM      7  C   UNL     1       2.355  -0.520  -1.286  1.00  0.00     0.253 C 
ATOM      8  H   UNL     1       1.393  -0.932   0.500  1.00  0.00     0.164 HD
BRANCH   7   9
ATOM      9  C   UNL     1       3.548  -0.087  -0.538  1.00  0.00     0.061 A 
ATOM     10  C   UNL     1       3.414   0.972   0.367  1.00  0.00     0.035 A 
ATOM     11  C   UNL     1       4.788  -0.687  -0.740  1.00  0.00     0.072 A 
ATOM     12  C   UNL     1       4.542   1.388   1.049  1.00  0.00     0.112 A 
ATOM     13  C   UNL     1       5.853  -0.195  -0.002  1.00  0.00     0.132 A 
ATOM     14  N   UNL     1       5.757   0.824   0.889  1.00  0.00    -0.263 NA
ATOM     15  Cl  UNL     1       5.045  -2.021  -1.795  1.00  0.00    -0.082 Cl
ENDBRANCH   7   9
ENDBRANCH   1   5
BRANCH   3  16
ATOM     16  C   UNL     1      -2.743   0.163   0.355  1.00  0.00     0.040 A 
ATOM     17  C   UNL     1      -3.259   1.369  -0.149  1.00  0.00     0.029 A 
ATOM     18  C   UNL     1      -3.457  -0.496   1.365  1.00  0.00     0.068 A 
ATOM     19  C   UNL     1      -4.463   1.895   0.329  1.00  0.00     0.044 A 
ATOM     20  C   UNL     1      -4.656   0.031   1.838  1.00  0.00     0.160 A 
ATOM     21  C   UNL     1      -5.157   1.218   1.323  1.00  0.00     0.158 A 
ATOM     22  F   UNL     1      -5.322  -0.619   2.803  1.00  0.00    -0.204 F 
ATOM     23  F   UNL     1      -6.310   1.722   1.782  1.00  0.00    -0.204 F 
ENDBRANCH   3  16
TORSDOF 3
