REMARK SMILES Cc1c(Cl)c2nncn2c2sc(C(=O)Nc3cc(C4CC4)c(Cl)cn3)c(N)c12
REMARK SMILES IDX 1 1 2 2 3 3 4 4 5 5 6 6 7 7 8 8 9 9 10 10 11 11 12 12 26 13
REMARK SMILES IDX 28 14 27 15 13 18 14 19 15 20 16 22 17 23 25 24 18 25 24 26
REMARK SMILES IDX 22 27 23 28 19 29 20 30 21 31
REMARK H PARENT 27 16 27 17 15 21
ROOT
ATOM      1  C   UNL     1      -5.561   2.071  -0.261  1.00  0.00     0.047 C 
ATOM      2  C   UNL     1      -5.056   0.776   0.314  1.00  0.00    -0.016 C 
ATOM      3  C   UNL     1      -5.872  -0.183   0.828  1.00  0.00     0.089 C 
ATOM      4  Cl  UNL     1      -7.592  -0.013   0.932  1.00  0.00    -0.080 Cl
ATOM      5  C   UNL     1      -5.334  -1.413   1.316  1.00  0.00     0.180 A 
ATOM      6  N   UNL     1      -5.877  -2.488   1.855  1.00  0.00    -0.129 NA
ATOM      7  N   UNL     1      -4.870  -3.388   2.126  1.00  0.00    -0.138 NA
ATOM      8  C   UNL     1      -3.736  -2.843   1.747  1.00  0.00     0.231 A 
ATOM      9  N   UNL     1      -3.966  -1.599   1.233  1.00  0.00    -0.271 N 
ATOM     10  C   UNL     1      -3.122  -0.633   0.716  1.00  0.00     0.113 A 
ATOM     11  S   UNL     1      -1.467  -0.844   0.597  1.00  0.00    -0.109 S 
ATOM     12  C   UNL     1      -1.281   0.733  -0.074  1.00  0.00     0.118 A 
ATOM     13  C   UNL     1      -2.512   1.381  -0.182  1.00  0.00     0.065 A 
ATOM     14  C   UNL     1      -3.611   0.571   0.264  1.00  0.00     0.038 A 
ENDROOT
BRANCH  13  15
ATOM     15  N   UNL     1      -2.605   2.640  -0.671  1.00  0.00    -0.397 N 
ATOM     16  H   UNL     1      -3.328   3.281  -0.366  1.00  0.00     0.156 HD
ATOM     17  H   UNL     1      -1.730   3.150  -0.849  1.00  0.00     0.156 HD
ENDBRANCH  13  15
BRANCH  12  18
ATOM     18  C   UNL     1       0.044   1.266  -0.428  1.00  0.00     0.269 C 
ATOM     19  O   UNL     1       0.181   2.442  -0.755  1.00  0.00    -0.268 OA
ATOM     20  N   UNL     1       1.070   0.341  -0.357  1.00  0.00    -0.306 N 
ATOM     21  H   UNL     1       0.816  -0.597  -0.087  1.00  0.00     0.171 HD
BRANCH  20  22
ATOM     22  C   UNL     1       2.420   0.585  -0.631  1.00  0.00     0.133 A 
ATOM     23  C   UNL     1       3.301  -0.491  -0.513  1.00  0.00     0.052 A 
ATOM     24  N   UNL     1       2.841   1.804  -0.991  1.00  0.00    -0.238 NA
ATOM     25  C   UNL     1       4.678  -0.331  -0.762  1.00  0.00    -0.021 A 
ATOM     26  C   UNL     1       4.159   1.964  -1.250  1.00  0.00     0.134 A 
ATOM     27  C   UNL     1       5.098   0.947  -1.157  1.00  0.00     0.063 A 
ATOM     28  Cl  UNL     1       6.741   1.290  -1.547  1.00  0.00    -0.082 Cl
BRANCH  25  29
ATOM     29  C   UNL     1       5.624  -1.510  -0.643  1.00  0.00     0.021 C 
ATOM     30  C   UNL     1       6.683  -1.517   0.437  1.00  0.00     0.009 C 
ATOM     31  C   UNL     1       5.529  -2.467   0.526  1.00  0.00     0.009 C 
ENDBRANCH  25  29
ENDBRANCH  20  22
ENDBRANCH  12  18
TORSDOF 4
