REMARK SMILES O=C(NC1CN(c2ccc(F)c(F)c2)C1)c1cncc(F)c1
REMARK SMILES IDX 4 1 5 2 6 3 15 4 3 5 1 6 2 7 16 9 17 10 22 11 18 12 20 13
REMARK SMILES IDX 19 14 21 15 7 16 8 17 14 18 9 19 12 20 10 21 13 22 11 23
REMARK H PARENT 3 8
ROOT
ATOM      1  C   UNL     1       0.143   0.671  -1.580  1.00  0.00     0.121 C 
ATOM      2  C   UNL     1      -0.854   1.368  -0.632  1.00  0.00     0.143 C 
ATOM      3  N   UNL     1      -1.524   0.096  -0.524  1.00  0.00    -0.367 N 
ATOM      4  C   UNL     1      -0.983  -0.364  -1.775  1.00  0.00     0.143 C 
ENDROOT
BRANCH   1   5
ATOM      5  N   UNL     1       1.363   0.146  -0.904  1.00  0.00    -0.346 N 
ATOM      6  O   UNL     1       2.576   2.064  -1.200  1.00  0.00    -0.269 OA
ATOM      7  C   UNL     1       2.483   0.933  -0.737  1.00  0.00     0.253 C 
ATOM      8  H   UNL     1       1.330  -0.785  -0.508  1.00  0.00     0.164 HD
BRANCH   7   9
ATOM      9  C   UNL     1       3.612   0.353   0.026  1.00  0.00     0.061 A 
ATOM     10  C   UNL     1       4.889   0.868  -0.190  1.00  0.00     0.125 A 
ATOM     11  C   UNL     1       3.466  -0.663   0.972  1.00  0.00     0.056 A 
ATOM     12  N   UNL     1       6.006   0.423   0.443  1.00  0.00    -0.261 NA
ATOM     13  C   UNL     1       4.596  -1.126   1.633  1.00  0.00     0.142 A 
ATOM     14  C   UNL     1       5.831  -0.570   1.344  1.00  0.00     0.150 A 
ATOM     15  F   UNL     1       4.486  -2.100   2.545  1.00  0.00    -0.205 F 
ENDBRANCH   7   9
ENDBRANCH   1   5
BRANCH   3  16
ATOM     16  C   UNL     1      -2.818  -0.140  -0.019  1.00  0.00     0.040 A 
ATOM     17  C   UNL     1      -3.392   0.732   0.921  1.00  0.00     0.029 A 
ATOM     18  C   UNL     1      -3.550  -1.267  -0.416  1.00  0.00     0.068 A 
ATOM     19  C   UNL     1      -4.671   0.497   1.438  1.00  0.00     0.044 A 
ATOM     20  C   UNL     1      -4.823  -1.498   0.100  1.00  0.00     0.160 A 
ATOM     21  C   UNL     1      -5.381  -0.620   1.020  1.00  0.00     0.158 A 
ATOM     22  F   UNL     1      -5.505  -2.580  -0.298  1.00  0.00    -0.204 F 
ATOM     23  F   UNL     1      -6.605  -0.847   1.515  1.00  0.00    -0.204 F 
ENDBRANCH   3  16
TORSDOF 3
