REMARK SMILES Cc1c(Cl)c2nncn2c2sc(-c3cncc(NC(=O)C4Cc5ccccc5C4)c3)c(N)c12
REMARK SMILES IDX 1 1 2 2 3 3 4 4 5 5 6 6 7 7 8 8 9 9 10 10 11 11 12 12 31 13
REMARK SMILES IDX 33 14 32 15 13 18 14 19 30 20 15 21 17 22 16 23 18 24 19 25
REMARK SMILES IDX 20 26 21 28 22 29 29 30 23 31 28 32 24 33 27 34 25 35 26 36
REMARK H PARENT 32 16 32 17 18 27
ROOT
ATOM      1  C   UNL     1      -3.397   3.389   1.955  1.00  0.00     0.047 C 
ATOM      2  C   UNL     1      -4.060   2.890   0.701  1.00  0.00    -0.016 C 
ATOM      3  C   UNL     1      -5.006   3.597   0.026  1.00  0.00     0.089 C 
ATOM      4  Cl  UNL     1      -5.604   5.133   0.557  1.00  0.00    -0.080 Cl
ATOM      5  C   UNL     1      -5.561   3.096  -1.190  1.00  0.00     0.180 A 
ATOM      6  N   UNL     1      -6.468   3.559  -2.029  1.00  0.00    -0.129 NA
ATOM      7  N   UNL     1      -6.601   2.655  -3.059  1.00  0.00    -0.138 NA
ATOM      8  C   UNL     1      -5.775   1.661  -2.827  1.00  0.00     0.231 A 
ATOM      9  N   UNL     1      -5.095   1.882  -1.663  1.00  0.00    -0.271 N 
ATOM     10  C   UNL     1      -4.139   1.149  -0.986  1.00  0.00     0.112 A 
ATOM     11  S   UNL     1      -3.560  -0.315  -1.549  1.00  0.00    -0.114 S 
ATOM     12  C   UNL     1      -2.527  -0.459  -0.181  1.00  0.00     0.062 A 
ATOM     13  C   UNL     1      -2.674   0.616   0.692  1.00  0.00     0.060 A 
ATOM     14  C   UNL     1      -3.605   1.596   0.202  1.00  0.00     0.038 A 
ENDROOT
BRANCH  13  15
ATOM     15  N   UNL     1      -1.992   0.677   1.863  1.00  0.00    -0.397 N 
ATOM     16  H   UNL     1      -2.345   1.221   2.642  1.00  0.00     0.156 HD
ATOM     17  H   UNL     1      -1.519  -0.157   2.208  1.00  0.00     0.156 HD
ENDBRANCH  13  15
BRANCH  12  18
ATOM     18  C   UNL     1      -1.644  -1.623  -0.089  1.00  0.00     0.014 A 
ATOM     19  C   UNL     1      -2.143  -2.915   0.028  1.00  0.00     0.120 A 
ATOM     20  C   UNL     1      -0.253  -1.467  -0.091  1.00  0.00     0.039 A 
ATOM     21  N   UNL     1      -1.368  -4.018   0.138  1.00  0.00    -0.262 NA
ATOM     22  C   UNL     1       0.586  -2.580   0.015  1.00  0.00     0.060 A 
ATOM     23  C   UNL     1      -0.023  -3.827   0.126  1.00  0.00     0.137 A 
BRANCH  22  24
ATOM     24  N   UNL     1       1.978  -2.348  -0.002  1.00  0.00    -0.324 N 
ATOM     25  C   UNL     1       2.980  -3.293   0.099  1.00  0.00     0.228 C 
ATOM     26  O   UNL     1       2.800  -4.501   0.236  1.00  0.00    -0.274 OA
ATOM     27  H   UNL     1       2.260  -1.380  -0.103  1.00  0.00     0.169 HD
BRANCH  25  28
ATOM     28  C   UNL     1       4.407  -2.742   0.034  1.00  0.00     0.087 C 
ATOM     29  C   UNL     1       4.702  -1.759   1.183  1.00  0.00     0.049 C 
ATOM     30  C   UNL     1       4.689  -2.007  -1.290  1.00  0.00     0.049 C 
ATOM     31  C   UNL     1       4.565  -0.430   0.504  1.00  0.00    -0.044 A 
ATOM     32  C   UNL     1       4.557  -0.570  -0.887  1.00  0.00    -0.044 A 
ATOM     33  C   UNL     1       4.471   0.817   1.097  1.00  0.00     0.004 A 
ATOM     34  C   UNL     1       4.455   0.534  -1.715  1.00  0.00     0.004 A 
ATOM     35  C   UNL     1       4.358   1.936   0.270  1.00  0.00     0.000 A 
ATOM     36  C   UNL     1       4.350   1.796  -1.126  1.00  0.00     0.000 A 
ENDBRANCH  25  28
ENDBRANCH  22  24
ENDBRANCH  12  18
TORSDOF 4
