REMARK SMILES Cc1c(Cl)c2nnc(C)n2c2sc(C(=O)Nc3cnn(C4CC4)c3)c(N)c12
REMARK SMILES IDX 1 1 2 2 3 3 4 4 5 5 6 6 7 7 8 8 9 9 10 10 11 11 12 12 13 13
REMARK SMILES IDX 25 14 27 15 26 16 14 19 15 20 16 21 17 23 18 24 24 25 19 26
REMARK SMILES IDX 20 27 21 28 22 29 23 30
REMARK H PARENT 26 17 26 18 16 22
ROOT
ATOM      1  C   UNL     1      -4.429   2.757  -2.257  1.00  0.00     0.047 C 
ATOM      2  C   UNL     1      -4.336   1.436  -1.542  1.00  0.00    -0.016 C 
ATOM      3  C   UNL     1      -5.378   0.572  -1.440  1.00  0.00     0.089 C 
ATOM      4  Cl  UNL     1      -6.957   0.910  -2.068  1.00  0.00    -0.080 Cl
ATOM      5  C   UNL     1      -5.218  -0.693  -0.800  1.00  0.00     0.181 A 
ATOM      6  N   UNL     1      -6.059  -1.681  -0.577  1.00  0.00    -0.129 NA
ATOM      7  N   UNL     1      -5.382  -2.681   0.063  1.00  0.00    -0.135 NA
ATOM      8  C   UNL     1      -4.131  -2.302   0.229  1.00  0.00     0.135 A 
ATOM      9  C   UNL     1      -3.095  -3.129   0.887  1.00  0.00     0.090 C 
ATOM     10  N   UNL     1      -3.966  -1.033  -0.301  1.00  0.00    -0.268 N 
ATOM     11  C   UNL     1      -2.893  -0.150  -0.396  1.00  0.00     0.113 A 
ATOM     12  S   UNL     1      -1.354  -0.490   0.169  1.00  0.00    -0.109 S 
ATOM     13  C   UNL     1      -0.774   1.053  -0.315  1.00  0.00     0.118 A 
ATOM     14  C   UNL     1      -1.789   1.805  -0.902  1.00  0.00     0.065 A 
ATOM     15  C   UNL     1      -3.035   1.092  -0.982  1.00  0.00     0.038 A 
ENDROOT
BRANCH  14  16
ATOM     16  N   UNL     1      -1.565   3.066  -1.342  1.00  0.00    -0.397 N 
ATOM     17  H   UNL     1      -2.298   3.766  -1.358  1.00  0.00     0.156 HD
ATOM     18  H   UNL     1      -0.661   3.502  -1.128  1.00  0.00     0.156 HD
ENDBRANCH  14  16
BRANCH  13  19
ATOM     19  C   UNL     1       0.615   1.458  -0.073  1.00  0.00     0.268 C 
ATOM     20  O   UNL     1       1.001   2.608  -0.284  1.00  0.00    -0.268 OA
ATOM     21  N   UNL     1       1.446   0.458   0.406  1.00  0.00    -0.319 N 
ATOM     22  H   UNL     1       1.049  -0.462   0.547  1.00  0.00     0.170 HD
BRANCH  21  23
ATOM     23  C   UNL     1       2.785   0.620   0.702  1.00  0.00     0.079 A 
ATOM     24  C   UNL     1       3.638   1.745   0.621  1.00  0.00     0.161 A 
ATOM     25  C   UNL     1       3.590  -0.389   1.176  1.00  0.00     0.135 A 
ATOM     26  N   UNL     1       4.886   1.467   1.017  1.00  0.00    -0.179 NA
ATOM     27  N   UNL     1       4.826   0.168   1.332  1.00  0.00    -0.268 N 
BRANCH  27  28
ATOM     28  C   UNL     1       5.998  -0.571   1.846  1.00  0.00     0.107 C 
ATOM     29  C   UNL     1       7.337  -0.525   1.150  1.00  0.00     0.029 C 
ATOM     30  C   UNL     1       6.547  -1.799   1.159  1.00  0.00     0.029 C 
ENDBRANCH  27  28
ENDBRANCH  21  23
ENDBRANCH  13  19
TORSDOF 4
