REMARK SMILES O=C(Nc1cncc(F)c1)C1CN(c2ccncc2Cl)C1
REMARK SMILES IDX 11 1 12 2 13 3 21 4 2 5 1 6 3 7 4 9 5 10 10 11 6 12 8 13
REMARK SMILES IDX 7 14 9 15 14 16 15 17 19 18 16 19 18 20 17 21 20 22
REMARK H PARENT 3 8
ROOT
ATOM      1  C   UNL     1       0.121  -2.294   0.240  1.00  0.00     0.117 C 
ATOM      2  C   UNL     1       1.011  -1.761  -0.894  1.00  0.00     0.132 C 
ATOM      3  N   UNL     1       1.433  -0.731   0.027  1.00  0.00    -0.369 N 
ATOM      4  C   UNL     1       1.102  -1.560   1.164  1.00  0.00     0.132 C 
ENDROOT
BRANCH   1   5
ATOM      5  C   UNL     1      -1.367  -1.863   0.278  1.00  0.00     0.231 C 
ATOM      6  O   UNL     1      -2.274  -2.673   0.477  1.00  0.00    -0.274 OA
ATOM      7  N   UNL     1      -1.568  -0.506   0.073  1.00  0.00    -0.324 N 
ATOM      8  H   UNL     1      -0.728   0.049  -0.072  1.00  0.00     0.169 HD
BRANCH   7   9
ATOM      9  C   UNL     1      -2.796   0.185   0.046  1.00  0.00     0.062 A 
ATOM     10  C   UNL     1      -4.053  -0.394   0.226  1.00  0.00     0.137 A 
ATOM     11  C   UNL     1      -2.754   1.563  -0.181  1.00  0.00     0.068 A 
ATOM     12  N   UNL     1      -5.225   0.297   0.197  1.00  0.00    -0.260 NA
ATOM     13  C   UNL     1      -3.938   2.287  -0.216  1.00  0.00     0.143 A 
ATOM     14  C   UNL     1      -5.138   1.627  -0.025  1.00  0.00     0.150 A 
ATOM     15  F   UNL     1      -3.912   3.608  -0.431  1.00  0.00    -0.205 F 
ENDBRANCH   7   9
ENDBRANCH   1   5
BRANCH   3  16
ATOM     16  C   UNL     1       2.576   0.107  -0.089  1.00  0.00     0.059 A 
ATOM     17  C   UNL     1       3.274   0.468   1.077  1.00  0.00     0.047 A 
ATOM     18  C   UNL     1       3.043   0.645  -1.301  1.00  0.00     0.082 A 
ATOM     19  C   UNL     1       4.392   1.287   0.992  1.00  0.00     0.113 A 
ATOM     20  C   UNL     1       4.173   1.458  -1.281  1.00  0.00     0.133 A 
ATOM     21  N   UNL     1       4.863   1.786  -0.165  1.00  0.00    -0.263 NA
ATOM     22  Cl  UNL     1       2.272   0.405  -2.825  1.00  0.00    -0.080 Cl
ENDBRANCH   3  16
TORSDOF 3
