REMARK SMILES O=C(Nc1ccncc1Cl)C1CN(c2ccncc2Cl)C1
REMARK SMILES IDX 11 1 12 2 13 3 21 4 2 5 1 6 3 7 4 9 5 10 9 11 6 12 8 13 7 14
REMARK SMILES IDX 10 15 14 16 15 17 19 18 16 19 18 20 17 21 20 22
REMARK H PARENT 3 8
ROOT
ATOM      1  C   UNL     1       0.143  -1.988   0.755  1.00  0.00     0.117 C 
ATOM      2  C   UNL     1       1.020  -1.735  -0.476  1.00  0.00     0.132 C 
ATOM      3  N   UNL     1       1.412  -0.483   0.141  1.00  0.00    -0.369 N 
ATOM      4  C   UNL     1       1.079  -0.996   1.455  1.00  0.00     0.132 C 
ENDROOT
BRANCH   1   5
ATOM      5  C   UNL     1      -1.364  -1.653   0.673  1.00  0.00     0.231 C 
ATOM      6  O   UNL     1      -2.226  -2.469   1.011  1.00  0.00    -0.274 OA
ATOM      7  N   UNL     1      -1.640  -0.382   0.195  1.00  0.00    -0.324 N 
ATOM      8  H   UNL     1      -0.832   0.190  -0.048  1.00  0.00     0.169 HD
BRANCH   7   9
ATOM      9  C   UNL     1      -2.901   0.232  -0.001  1.00  0.00     0.063 A 
ATOM     10  C   UNL     1      -4.113  -0.399   0.277  1.00  0.00     0.048 A 
ATOM     11  C   UNL     1      -2.937   1.542  -0.501  1.00  0.00     0.082 A 
ATOM     12  C   UNL     1      -5.296   0.292   0.049  1.00  0.00     0.113 A 
ATOM     13  C   UNL     1      -4.170   2.149  -0.696  1.00  0.00     0.133 A 
ATOM     14  N   UNL     1      -5.354   1.552  -0.431  1.00  0.00    -0.263 NA
ATOM     15  Cl  UNL     1      -1.497   2.416  -0.879  1.00  0.00    -0.080 Cl
ENDBRANCH   7   9
ENDBRANCH   1   5
BRANCH   3  16
ATOM     16  C   UNL     1       2.643   0.171  -0.147  1.00  0.00     0.059 A 
ATOM     17  C   UNL     1       2.538   1.479  -0.644  1.00  0.00     0.047 A 
ATOM     18  C   UNL     1       3.931  -0.362   0.018  1.00  0.00     0.082 A 
ATOM     19  C   UNL     1       3.687   2.192  -0.951  1.00  0.00     0.113 A 
ATOM     20  C   UNL     1       5.021   0.436  -0.321  1.00  0.00     0.133 A 
ATOM     21  N   UNL     1       4.930   1.699  -0.801  1.00  0.00    -0.263 NA
ATOM     22  Cl  UNL     1       4.262  -1.946   0.614  1.00  0.00    -0.080 Cl
ENDBRANCH   3  16
TORSDOF 3
