REMARK SMILES Cc1c(Cl)c2nncn2c2sc(C(=O)Nc3cnn(-c4ccncc4Cl)c3)c(N)c12
REMARK SMILES IDX 13 1 14 2 15 3 12 5 2 6 3 7 30 8 5 9 28 10 10 11 6 12 9 13
REMARK SMILES IDX 11 14 7 15 8 16 1 17 4 18 29 19 16 22 17 23 27 24 18 25
REMARK SMILES IDX 19 26 20 27 21 28 25 29 22 30 24 31 23 32 26 33
REMARK H PARENT 15 4 29 20 29 21
ROOT
ATOM      1  C   UNL     1      -0.193   0.701   0.884  1.00  0.00     0.268 C 
ATOM      2  O   UNL     1       0.015   1.459   1.832  1.00  0.00    -0.268 OA
ATOM      3  N   UNL     1       0.825   0.073   0.183  1.00  0.00    -0.318 N 
ATOM      4  H   UNL     1       0.567  -0.535  -0.583  1.00  0.00     0.170 HD
ENDROOT
BRANCH   1   5
ATOM      5  C   UNL     1      -1.551   0.403   0.415  1.00  0.00     0.118 A 
ATOM      6  C   UNL     1      -5.345   0.443   0.482  1.00  0.00    -0.016 C 
ATOM      7  C   UNL     1      -6.220  -0.087  -0.415  1.00  0.00     0.089 C 
ATOM      8  C   UNL     1      -3.904   0.332   0.268  1.00  0.00     0.038 A 
ATOM      9  C   UNL     1      -5.747  -0.774  -1.575  1.00  0.00     0.180 A 
ATOM     10  C   UNL     1      -2.757   0.798   0.995  1.00  0.00     0.065 A 
ATOM     11  C   UNL     1      -3.477  -0.358  -0.844  1.00  0.00     0.113 A 
ATOM     12  N   UNL     1      -6.354  -1.369  -2.584  1.00  0.00    -0.129 NA
ATOM     13  N   UNL     1      -4.380  -0.895  -1.744  1.00  0.00    -0.271 N 
ATOM     14  S   UNL     1      -1.822  -0.502  -1.027  1.00  0.00    -0.109 S 
ATOM     15  N   UNL     1      -5.390  -1.886  -3.421  1.00  0.00    -0.138 NA
ATOM     16  C   UNL     1      -4.217  -1.596  -2.905  1.00  0.00     0.231 A 
ATOM     17  C   UNL     1      -5.776   1.135   1.746  1.00  0.00     0.047 C 
ATOM     18  Cl  UNL     1      -7.939   0.011  -0.239  1.00  0.00    -0.080 Cl
BRANCH  10  19
ATOM     19  N   UNL     1      -2.785   1.535   2.130  1.00  0.00    -0.397 N 
ATOM     20  H   UNL     1      -3.549   2.163   2.349  1.00  0.00     0.156 HD
ATOM     21  H   UNL     1      -1.899   1.904   2.495  1.00  0.00     0.156 HD
ENDBRANCH  10  19
ENDBRANCH   1   5
BRANCH   3  22
ATOM     22  C   UNL     1       2.171   0.216   0.452  1.00  0.00     0.080 A 
ATOM     23  C   UNL     1       2.859   0.957   1.425  1.00  0.00     0.161 A 
ATOM     24  C   UNL     1       3.163  -0.425  -0.251  1.00  0.00     0.141 A 
ATOM     25  N   UNL     1       4.180   0.792   1.348  1.00  0.00    -0.174 NA
ATOM     26  N   UNL     1       4.376  -0.027   0.276  1.00  0.00    -0.237 N 
BRANCH  26  27
ATOM     27  C   UNL     1       5.708  -0.375  -0.102  1.00  0.00     0.086 A 
ATOM     28  C   UNL     1       6.729  -0.084   0.827  1.00  0.00     0.050 A 
ATOM     29  C   UNL     1       6.073  -0.973  -1.314  1.00  0.00     0.085 A 
ATOM     30  C   UNL     1       8.038  -0.428   0.537  1.00  0.00     0.113 A 
ATOM     31  C   UNL     1       7.422  -1.276  -1.502  1.00  0.00     0.133 A 
ATOM     32  N   UNL     1       8.407  -1.029  -0.608  1.00  0.00    -0.263 NA
ATOM     33  Cl  UNL     1       5.043  -1.287  -2.659  1.00  0.00    -0.080 Cl
ENDBRANCH  26  27
ENDBRANCH   3  22
TORSDOF 4
