REMARK SMILES Cc1cc2nncn2c2sc(C(=O)NC3CN(c4cc(F)nc(F)c4)C3)c(N)c12
REMARK SMILES IDX 12 1 13 2 14 3 11 5 2 6 3 7 29 8 4 9 27 10 9 11 5 12 8 13
REMARK SMILES IDX 10 14 6 15 7 16 1 17 28 18 15 21 16 22 26 23 17 24 18 25
REMARK SMILES IDX 19 26 25 27 20 28 23 29 22 30 21 31 24 32
REMARK H PARENT 14 4 28 19 28 20
ROOT
ATOM      1  C   UNL     1      -0.206  -0.227  -1.830  1.00  0.00     0.263 C 
ATOM      2  O   UNL     1      -0.059  -1.016  -2.764  1.00  0.00    -0.268 OA
ATOM      3  N   UNL     1       0.840   0.581  -1.423  1.00  0.00    -0.345 N 
ATOM      4  H   UNL     1       0.700   1.121  -0.577  1.00  0.00     0.164 HD
ENDROOT
BRANCH   1   5
ATOM      5  C   UNL     1      -1.456  -0.093  -1.085  1.00  0.00     0.118 A 
ATOM      6  C   UNL     1      -5.099  -0.706  -0.272  1.00  0.00    -0.035 C 
ATOM      7  C   UNL     1      -5.845  -0.223   0.752  1.00  0.00     0.054 C 
ATOM      8  C   UNL     1      -3.694  -0.360  -0.406  1.00  0.00     0.037 A 
ATOM      9  C   UNL     1      -5.265   0.640   1.722  1.00  0.00     0.161 A 
ATOM     10  C   UNL     1      -2.677  -0.711  -1.353  1.00  0.00     0.065 A 
ATOM     11  C   UNL     1      -3.159   0.491   0.536  1.00  0.00     0.113 A 
ATOM     12  N   UNL     1      -5.751   1.234   2.791  1.00  0.00    -0.131 NA
ATOM     13  N   UNL     1      -3.930   0.978   1.579  1.00  0.00    -0.272 N 
ATOM     14  S   UNL     1      -1.550   0.892   0.329  1.00  0.00    -0.109 S 
ATOM     15  N   UNL     1      -4.736   1.971   3.363  1.00  0.00    -0.138 NA
ATOM     16  C   UNL     1      -3.657   1.809   2.628  1.00  0.00     0.231 A 
ATOM     17  C   UNL     1      -5.715  -1.589  -1.313  1.00  0.00     0.045 C 
BRANCH  10  18
ATOM     18  N   UNL     1      -2.836  -1.537  -2.413  1.00  0.00    -0.397 N 
ATOM     19  H   UNL     1      -2.008  -1.812  -2.953  1.00  0.00     0.156 HD
ATOM     20  H   UNL     1      -3.546  -2.259  -2.436  1.00  0.00     0.156 HD
ENDBRANCH  10  18
ENDBRANCH   1   5
BRANCH   3  21
ATOM     21  C   UNL     1       2.197   0.465  -2.012  1.00  0.00     0.121 C 
ATOM     22  C   UNL     1       3.250   1.410  -1.400  1.00  0.00     0.143 C 
ATOM     23  C   UNL     1       3.060  -0.662  -1.410  1.00  0.00     0.143 C 
ATOM     24  N   UNL     1       3.601   0.330  -0.517  1.00  0.00    -0.367 N 
BRANCH  24  25
ATOM     25  C   UNL     1       4.759   0.218   0.278  1.00  0.00     0.046 A 
ATOM     26  C   UNL     1       5.457   1.348   0.699  1.00  0.00     0.086 A 
ATOM     27  C   UNL     1       5.226  -1.026   0.699  1.00  0.00     0.086 A 
ATOM     28  C   UNL     1       6.581   1.182   1.491  1.00  0.00     0.217 A 
ATOM     29  C   UNL     1       6.360  -1.081   1.491  1.00  0.00     0.217 A 
ATOM     30  N   UNL     1       7.057  -0.007   1.898  1.00  0.00    -0.190 NA
ATOM     31  F   UNL     1       7.244   2.279   1.884  1.00  0.00    -0.185 F 
ATOM     32  F   UNL     1       6.799  -2.285   1.884  1.00  0.00    -0.185 F 
ENDBRANCH  24  25
ENDBRANCH   3  21
TORSDOF 4
