REMARK SMILES O=C(NC1CC1)c1cc(-c2ccc(F)c(F)c2)ncc1Cl
REMARK SMILES IDX 7 1 8 2 9 3 18 4 19 5 20 6 21 7 2 8 1 9 3 10 4 12 5 13 6 14
REMARK SMILES IDX 10 15 11 16 17 17 12 18 15 19 13 20 16 21 14 22
REMARK H PARENT 3 11
ROOT
ATOM      1  C   UNL     1      -0.722  -0.903   0.150  1.00  0.00     0.062 A 
ATOM      2  C   UNL     1       0.485  -0.320  -0.285  1.00  0.00     0.044 A 
ATOM      3  C   UNL     1       1.688  -0.659   0.326  1.00  0.00     0.071 A 
ATOM      4  N   UNL     1       1.724  -1.563   1.334  1.00  0.00    -0.255 NA
ATOM      5  C   UNL     1       0.558  -2.127   1.731  1.00  0.00     0.133 A 
ATOM      6  C   UNL     1      -0.682  -1.839   1.181  1.00  0.00     0.072 A 
ATOM      7  Cl  UNL     1      -2.045  -2.691   1.800  1.00  0.00    -0.082 Cl
ENDROOT
BRANCH   1   8
ATOM      8  C   UNL     1      -1.948  -0.456  -0.571  1.00  0.00     0.253 C 
ATOM      9  O   UNL     1      -1.838   0.006  -1.704  1.00  0.00    -0.269 OA
ATOM     10  N   UNL     1      -3.154  -0.540   0.092  1.00  0.00    -0.349 N 
ATOM     11  H   UNL     1      -3.194  -0.970   1.009  1.00  0.00     0.164 HD
BRANCH  10  12
ATOM     12  C   UNL     1      -4.385  -0.128  -0.506  1.00  0.00     0.082 C 
ATOM     13  C   UNL     1      -4.990   1.203  -0.158  1.00  0.00     0.027 C 
ATOM     14  C   UNL     1      -5.648  -0.063   0.308  1.00  0.00     0.027 C 
ENDBRANCH  10  12
ENDBRANCH   1   8
BRANCH   3  15
ATOM     15  C   UNL     1       2.994  -0.085  -0.066  1.00  0.00     0.003 A 
ATOM     16  C   UNL     1       3.113   1.200  -0.637  1.00  0.00     0.013 A 
ATOM     17  C   UNL     1       4.183  -0.815   0.136  1.00  0.00     0.052 A 
ATOM     18  C   UNL     1       4.360   1.726  -1.000  1.00  0.00     0.043 A 
ATOM     19  C   UNL     1       5.421  -0.288  -0.227  1.00  0.00     0.159 A 
ATOM     20  C   UNL     1       5.508   0.974  -0.793  1.00  0.00     0.158 A 
ATOM     21  F   UNL     1       6.529  -1.014  -0.024  1.00  0.00    -0.204 F 
ATOM     22  F   UNL     1       6.699   1.481  -1.141  1.00  0.00    -0.204 F 
ENDBRANCH   3  15
TORSDOF 3
