REMARK SMILES Cc1c(Cl)c2nncn2c2sc(N3CC(NC(=O)c4cc(F)nc(F)c4)C3)c(N)c12
REMARK SMILES IDX 13 1 14 2 15 3 27 4 12 5 2 6 3 7 30 8 5 9 28 10 10 11 6 12
REMARK SMILES IDX 9 13 11 14 7 15 8 16 1 17 4 18 29 19 16 22 17 23 18 24 19 26
REMARK SMILES IDX 20 27 26 28 21 29 24 30 23 31 22 32 25 33
REMARK H PARENT 29 20 29 21 16 25
ROOT
ATOM      1  N   UNL     1      -0.199   0.980  -1.233  1.00  0.00    -0.357 N 
ATOM      2  C   UNL     1       0.800  -0.047  -1.427  1.00  0.00     0.144 C 
ATOM      3  C   UNL     1       1.843   1.086  -1.476  1.00  0.00     0.121 C 
ATOM      4  C   UNL     1       0.785   1.896  -0.709  1.00  0.00     0.144 C 
ENDROOT
BRANCH   1   5
ATOM      5  C   UNL     1      -1.448   0.765  -0.708  1.00  0.00     0.117 A 
ATOM      6  C   UNL     1      -4.691  -1.118  -0.075  1.00  0.00    -0.016 C 
ATOM      7  C   UNL     1      -5.734  -0.779   0.730  1.00  0.00     0.089 C 
ATOM      8  C   UNL     1      -3.536  -0.235  -0.202  1.00  0.00     0.040 A 
ATOM      9  C   UNL     1      -5.710   0.435   1.481  1.00  0.00     0.180 A 
ATOM     10  C   UNL     1      -2.343  -0.272  -1.002  1.00  0.00     0.076 A 
ATOM     11  C   UNL     1      -3.524   0.911   0.558  1.00  0.00     0.114 A 
ATOM     12  N   UNL     1      -6.560   1.000   2.318  1.00  0.00    -0.129 NA
ATOM     13  N   UNL     1      -4.588   1.238   1.377  1.00  0.00    -0.271 N 
ATOM     14  S   UNL     1      -2.167   1.872   0.414  1.00  0.00    -0.097 S 
ATOM     15  N   UNL     1      -6.002   2.175   2.770  1.00  0.00    -0.138 NA
ATOM     16  C   UNL     1      -4.825   2.302   2.200  1.00  0.00     0.231 A 
ATOM     17  C   UNL     1      -4.621  -2.417  -0.830  1.00  0.00     0.047 C 
ATOM     18  Cl  UNL     1      -7.143  -1.767   0.926  1.00  0.00    -0.080 Cl
BRANCH  10  19
ATOM     19  N   UNL     1      -2.080  -1.191  -1.968  1.00  0.00    -0.396 N 
ATOM     20  H   UNL     1      -2.844  -1.648  -2.451  1.00  0.00     0.156 HD
ATOM     21  H   UNL     1      -1.352  -0.953  -2.640  1.00  0.00     0.156 HD
ENDBRANCH  10  19
ENDBRANCH   1   5
BRANCH   3  22
ATOM     22  N   UNL     1       3.106   0.833  -0.738  1.00  0.00    -0.346 N 
ATOM     23  C   UNL     1       3.959  -0.180  -1.126  1.00  0.00     0.251 C 
ATOM     24  O   UNL     1       3.728  -0.928  -2.069  1.00  0.00    -0.269 OA
ATOM     25  H   UNL     1       3.426   1.516  -0.063  1.00  0.00     0.164 HD
BRANCH  23  26
ATOM     26  C   UNL     1       5.222  -0.330  -0.363  1.00  0.00     0.048 A 
ATOM     27  C   UNL     1       5.335   0.051   0.971  1.00  0.00     0.074 A 
ATOM     28  C   UNL     1       6.315  -0.907  -1.006  1.00  0.00     0.074 A 
ATOM     29  C   UNL     1       6.554  -0.145   1.591  1.00  0.00     0.216 A 
ATOM     30  C   UNL     1       7.484  -1.052  -0.288  1.00  0.00     0.216 A 
ATOM     31  N   UNL     1       7.635  -0.677   0.995  1.00  0.00    -0.191 NA
ATOM     32  F   UNL     1       6.673   0.220   2.875  1.00  0.00    -0.185 F 
ATOM     33  F   UNL     1       8.545  -1.595  -0.901  1.00  0.00    -0.185 F 
ENDBRANCH  23  26
ENDBRANCH   3  22
TORSDOF 4
