REMARK SMILES Cc1ccc(C(=O)NC2Cc3ccccc3C2)c(-c2sc3c(c(C)c(Cl)c4nncn43)c2N)n1
REMARK SMILES IDX 19 1 20 2 21 3 22 4 23 5 24 6 25 7 26 8 27 9 28 10 29 11
REMARK SMILES IDX 30 12 31 13 32 14 18 15 2 16 3 17 34 18 4 19 5 20 1 21 6 22
REMARK SMILES IDX 7 23 8 24 9 26 10 27 17 28 11 29 16 30 12 31 15 32 13 33
REMARK SMILES IDX 14 34 33 35
REMARK H PARENT 8 25 33 36 33 37
ROOT
ATOM      1  C   UNL     1      -1.814  -0.764  -1.127  1.00  0.00     0.079 A 
ATOM      2  S   UNL     1      -1.008   0.569  -1.868  1.00  0.00    -0.113 S 
ATOM      3  C   UNL     1      -2.426   1.454  -1.879  1.00  0.00     0.113 A 
ATOM      4  C   UNL     1      -3.541   0.817  -1.383  1.00  0.00     0.038 A 
ATOM      5  C   UNL     1      -4.792   1.567  -1.354  1.00  0.00    -0.016 C 
ATOM      6  C   UNL     1      -5.963   0.876  -0.710  1.00  0.00     0.047 C 
ATOM      7  C   UNL     1      -4.850   2.833  -1.848  1.00  0.00     0.089 C 
ATOM      8  Cl  UNL     1      -6.297   3.783  -1.861  1.00  0.00    -0.080 Cl
ATOM      9  C   UNL     1      -3.684   3.458  -2.387  1.00  0.00     0.180 A 
ATOM     10  N   UNL     1      -3.459   4.640  -2.929  1.00  0.00    -0.129 NA
ATOM     11  N   UNL     1      -2.124   4.714  -3.261  1.00  0.00    -0.138 NA
ATOM     12  C   UNL     1      -1.565   3.576  -2.916  1.00  0.00     0.231 A 
ATOM     13  N   UNL     1      -2.499   2.744  -2.369  1.00  0.00    -0.271 N 
ATOM     14  C   UNL     1      -3.181  -0.519  -1.001  1.00  0.00     0.062 A 
ENDROOT
BRANCH   1  15
ATOM     15  C   UNL     1      -1.055  -1.982  -0.805  1.00  0.00     0.095 A 
ATOM     16  C   UNL     1      -0.964  -4.286  -1.188  1.00  0.00     0.038 A 
ATOM     17  C   UNL     1       0.192  -4.406  -0.426  1.00  0.00     0.024 A 
ATOM     18  N   UNL     1      -1.591  -3.101  -1.378  1.00  0.00    -0.251 NA
ATOM     19  C   UNL     1       0.725  -3.265   0.169  1.00  0.00     0.018 A 
ATOM     20  C   UNL     1       0.096  -2.030  -0.022  1.00  0.00     0.067 A 
ATOM     21  C   UNL     1      -1.570  -5.497  -1.834  1.00  0.00     0.067 C 
BRANCH  20  22
ATOM     22  C   UNL     1       0.633  -0.841   0.668  1.00  0.00     0.253 C 
ATOM     23  O   UNL     1      -0.089  -0.150   1.373  1.00  0.00    -0.269 OA
ATOM     24  N   UNL     1       1.977  -0.601   0.469  1.00  0.00    -0.349 N 
ATOM     25  H   UNL     1       2.521  -1.227  -0.110  1.00  0.00     0.164 HD
BRANCH  24  26
ATOM     26  C   UNL     1       2.649   0.505   1.135  1.00  0.00     0.091 C 
ATOM     27  C   UNL     1       4.033   0.816   0.525  1.00  0.00     0.061 C 
ATOM     28  C   UNL     1       2.884   0.245   2.641  1.00  0.00     0.061 C 
ATOM     29  C   UNL     1       4.769   1.372   1.703  1.00  0.00    -0.043 A 
ATOM     30  C   UNL     1       4.121   1.048   2.898  1.00  0.00    -0.043 A 
ATOM     31  C   UNL     1       5.958   2.082   1.705  1.00  0.00     0.004 A 
ATOM     32  C   UNL     1       4.647   1.428   4.122  1.00  0.00     0.004 A 
ATOM     33  C   UNL     1       6.490   2.479   2.933  1.00  0.00     0.000 A 
ATOM     34  C   UNL     1       5.839   2.154   4.133  1.00  0.00     0.000 A 
ENDBRANCH  24  26
ENDBRANCH  20  22
ENDBRANCH   1  15
BRANCH  14  35
ATOM     35  N   UNL     1      -4.034  -1.479  -0.558  1.00  0.00    -0.397 N 
ATOM     36  H   UNL     1      -3.674  -2.437  -0.564  1.00  0.00     0.156 HD
ATOM     37  H   UNL     1      -4.999  -1.478  -0.868  1.00  0.00     0.156 HD
ENDBRANCH  14  35
TORSDOF 4
