REMARK SMILES Cc1ccc(NC(=O)C2CC2)c(-c2cncc(F)c2)n1
REMARK SMILES IDX 1 1 2 2 3 3 4 4 5 5 12 6 20 7 13 8 14 9 19 10 15 11 17 12
REMARK SMILES IDX 16 13 18 14 6 15 7 16 8 17 9 19 10 20 11 21
REMARK H PARENT 6 18
ROOT
ATOM      1  C   UNL     1      -3.555  -3.236  -0.731  1.00  0.00     0.067 C 
ATOM      2  C   UNL     1      -2.285  -2.488  -0.460  1.00  0.00     0.038 A 
ATOM      3  C   UNL     1      -1.088  -3.172  -0.311  1.00  0.00     0.026 A 
ATOM      4  C   UNL     1       0.078  -2.452  -0.050  1.00  0.00     0.030 A 
ATOM      5  C   UNL     1       0.036  -1.061   0.054  1.00  0.00     0.067 A 
ATOM      6  C   UNL     1      -1.217  -0.445  -0.137  1.00  0.00     0.096 A 
ATOM      7  N   UNL     1      -2.362  -1.141  -0.374  1.00  0.00    -0.251 NA
ENDROOT
BRANCH   6   8
ATOM      8  C   UNL     1      -1.420   1.008  -0.116  1.00  0.00     0.024 A 
ATOM      9  C   UNL     1      -0.790   1.851  -1.036  1.00  0.00     0.121 A 
ATOM     10  C   UNL     1      -2.268   1.615   0.819  1.00  0.00     0.053 A 
ATOM     11  N   UNL     1      -0.901   3.203  -1.047  1.00  0.00    -0.261 NA
ATOM     12  C   UNL     1      -2.421   2.994   0.813  1.00  0.00     0.142 A 
ATOM     13  C   UNL     1      -1.726   3.743  -0.120  1.00  0.00     0.150 A 
ATOM     14  F   UNL     1      -3.221   3.589   1.705  1.00  0.00    -0.205 F 
ENDBRANCH   6   8
BRANCH   5  15
ATOM     15  N   UNL     1       1.179  -0.282   0.366  1.00  0.00    -0.324 N 
ATOM     16  C   UNL     1       2.474  -0.715   0.534  1.00  0.00     0.227 C 
ATOM     17  O   UNL     1       2.905  -1.854   0.447  1.00  0.00    -0.274 OA
ATOM     18  H   UNL     1       1.034   0.711   0.503  1.00  0.00     0.170 HD
BRANCH  16  19
ATOM     19  C   UNL     1       3.411   0.389   0.887  1.00  0.00     0.079 C 
ATOM     20  C   UNL     1       3.512   1.640   0.045  1.00  0.00     0.014 C 
ATOM     21  C   UNL     1       4.627   0.637   0.023  1.00  0.00     0.014 C 
ENDBRANCH  16  19
ENDBRANCH   5  15
TORSDOF 3
