REMARK SMILES Cc1c(Cl)c2nncn2c2sc(C(=O)NC3C[NH+](C4(F)CCCC4)C3)c(N)c12
REMARK SMILES IDX 13 1 14 2 15 3 12 5 2 6 3 7 28 8 5 9 26 10 10 11 6 12 9 13
REMARK SMILES IDX 11 14 7 15 8 16 1 17 4 18 27 19 16 22 17 23 25 24 18 25
REMARK SMILES IDX 19 27 21 28 24 29 22 30 23 31 20 32
REMARK H PARENT 15 4 27 20 27 21 18 26
ROOT
ATOM      1  C   UNL     1      -0.742   0.963   0.534  1.00  0.00     0.264 C 
ATOM      2  O   UNL     1      -0.381   1.989  -0.046  1.00  0.00    -0.268 OA
ATOM      3  N   UNL     1       0.168   0.296   1.344  1.00  0.00    -0.338 N 
ATOM      4  H   UNL     1      -0.203  -0.494   1.865  1.00  0.00     0.164 HD
ENDROOT
BRANCH   1   5
ATOM      5  C   UNL     1      -2.075   0.384   0.421  1.00  0.00     0.118 A 
ATOM      6  C   UNL     1      -5.608  -0.018  -0.905  1.00  0.00    -0.016 C 
ATOM      7  C   UNL     1      -6.559  -0.919  -0.538  1.00  0.00     0.089 C 
ATOM      8  C   UNL     1      -4.297  -0.017  -0.259  1.00  0.00     0.038 A 
ATOM      9  C   UNL     1      -6.292  -1.890   0.474  1.00  0.00     0.180 A 
ATOM     10  C   UNL     1      -3.123   0.802  -0.397  1.00  0.00     0.065 A 
ATOM     11  C   UNL     1      -4.060  -0.978   0.697  1.00  0.00     0.113 A 
ATOM     12  N   UNL     1      -7.008  -2.858   1.013  1.00  0.00    -0.129 NA
ATOM     13  N   UNL     1      -5.037  -1.890   1.055  1.00  0.00    -0.271 N 
ATOM     14  S   UNL     1      -2.534  -0.971   1.381  1.00  0.00    -0.109 S 
ATOM     15  N   UNL     1      -6.228  -3.500   1.948  1.00  0.00    -0.138 NA
ATOM     16  C   UNL     1      -5.055  -2.911   1.962  1.00  0.00     0.231 A 
ATOM     17  C   UNL     1      -5.815   0.998  -1.994  1.00  0.00     0.047 C 
ATOM     18  Cl  UNL     1      -8.137  -0.980  -1.248  1.00  0.00    -0.080 Cl
BRANCH  10  19
ATOM     19  N   UNL     1      -2.991   1.864  -1.224  1.00  0.00    -0.397 N 
ATOM     20  H   UNL     1      -2.164   2.463  -1.159  1.00  0.00     0.156 HD
ATOM     21  H   UNL     1      -3.785   2.383  -1.584  1.00  0.00     0.156 HD
ENDBRANCH  10  19
ENDBRANCH   1   5
BRANCH   3  22
ATOM     22  C   UNL     1       1.514   0.856   1.617  1.00  0.00     0.192 C 
ATOM     23  C   UNL     1       2.325   1.359   0.390  1.00  0.00     0.296 C 
ATOM     24  C   UNL     1       2.661  -0.171   1.765  1.00  0.00     0.296 C 
ATOM     25  N   UNL     1       3.528   0.739   0.990  1.00  0.00    -0.300 N 
ATOM     26  H   UNL     1       4.082   1.388   1.559  1.00  0.00     0.351 HD
BRANCH  25  27
ATOM     27  C   UNL     1       4.315   0.014  -0.018  1.00  0.00     0.240 C 
ATOM     28  C   UNL     1       5.031   0.957  -0.973  1.00  0.00     0.106 C 
ATOM     29  C   UNL     1       5.459  -0.765   0.613  1.00  0.00     0.106 C 
ATOM     30  C   UNL     1       6.130   0.086  -1.578  1.00  0.00     0.010 C 
ATOM     31  C   UNL     1       6.401  -1.025  -0.561  1.00  0.00     0.010 C 
ATOM     32  F   UNL     1       3.515  -0.827  -0.711  1.00  0.00    -0.183 F 
ENDBRANCH  25  27
ENDBRANCH   3  22
TORSDOF 4
