REMARK SMILES Cc1c(Cl)c2nncn2c2sc(N3CC(NC(=O)C4Cc5ccccc5C4)C3)c(N)c12
REMARK SMILES IDX 1 1 2 2 3 3 4 4 5 5 6 6 7 7 8 8 9 9 10 10 11 11 12 12 29 13
REMARK SMILES IDX 31 14 30 15 13 18 14 19 28 20 15 21 16 22 17 23 18 24 19 26
REMARK SMILES IDX 20 27 27 28 21 29 26 30 22 31 25 32 23 33 24 34
REMARK H PARENT 30 16 30 17 16 25
ROOT
ATOM      1  C   UNL     1       4.740   0.721  -3.056  1.00  0.00     0.047 C 
ATOM      2  C   UNL     1       5.180   0.936  -1.633  1.00  0.00    -0.016 C 
ATOM      3  C   UNL     1       6.404   1.426  -1.298  1.00  0.00     0.089 C 
ATOM      4  Cl  UNL     1       7.575   1.938  -2.467  1.00  0.00    -0.080 Cl
ATOM      5  C   UNL     1       6.795   1.535   0.071  1.00  0.00     0.180 A 
ATOM      6  N   UNL     1       7.890   1.968   0.668  1.00  0.00    -0.129 NA
ATOM      7  N   UNL     1       7.723   1.822   2.027  1.00  0.00    -0.138 NA
ATOM      8  C   UNL     1       6.532   1.305   2.230  1.00  0.00     0.231 A 
ATOM      9  N   UNL     1       5.901   1.107   1.035  1.00  0.00    -0.271 N 
ATOM     10  C   UNL     1       4.651   0.614   0.711  1.00  0.00     0.114 A 
ATOM     11  S   UNL     1       3.556   0.105   1.862  1.00  0.00    -0.097 S 
ATOM     12  C   UNL     1       2.398  -0.310   0.642  1.00  0.00     0.117 A 
ATOM     13  C   UNL     1       2.878   0.059  -0.622  1.00  0.00     0.076 A 
ATOM     14  C   UNL     1       4.235   0.531  -0.597  1.00  0.00     0.040 A 
ENDROOT
BRANCH  13  15
ATOM     15  N   UNL     1       2.100  -0.021  -1.733  1.00  0.00    -0.396 N 
ATOM     16  H   UNL     1       1.097  -0.105  -1.589  1.00  0.00     0.156 HD
ATOM     17  H   UNL     1       2.279   0.588  -2.523  1.00  0.00     0.156 HD
ENDBRANCH  13  15
BRANCH  12  18
ATOM     18  N   UNL     1       1.182  -0.860   0.958  1.00  0.00    -0.357 N 
ATOM     19  C   UNL     1       0.845  -1.473   2.223  1.00  0.00     0.144 C 
ATOM     20  C   UNL     1       0.556  -1.943   0.228  1.00  0.00     0.144 C 
ATOM     21  C   UNL     1      -0.298  -2.192   1.486  1.00  0.00     0.120 C 
BRANCH  21  22
ATOM     22  N   UNL     1      -1.602  -1.473   1.507  1.00  0.00    -0.350 N 
ATOM     23  C   UNL     1      -2.677  -1.917   0.763  1.00  0.00     0.224 C 
ATOM     24  O   UNL     1      -2.647  -2.966   0.129  1.00  0.00    -0.275 OA
ATOM     25  H   UNL     1      -1.652  -0.556   1.935  1.00  0.00     0.163 HD
BRANCH  23  26
ATOM     26  C   UNL     1      -3.890  -1.011   0.834  1.00  0.00     0.087 C 
ATOM     27  C   UNL     1      -5.081  -1.544   0.014  1.00  0.00     0.049 C 
ATOM     28  C   UNL     1      -3.590   0.401   0.291  1.00  0.00     0.049 C 
ATOM     29  C   UNL     1      -5.783  -0.273  -0.353  1.00  0.00    -0.044 A 
ATOM     30  C   UNL     1      -4.936   0.828  -0.199  1.00  0.00    -0.044 A 
ATOM     31  C   UNL     1      -7.072  -0.121  -0.834  1.00  0.00     0.004 A 
ATOM     32  C   UNL     1      -5.360   2.106  -0.522  1.00  0.00     0.004 A 
ATOM     33  C   UNL     1      -7.514   1.165  -1.151  1.00  0.00     0.000 A 
ATOM     34  C   UNL     1      -6.664   2.271  -0.996  1.00  0.00     0.000 A 
ENDBRANCH  23  26
ENDBRANCH  21  22
ENDBRANCH  12  18
TORSDOF 4
