REMARK SMILES Cc1c(Cl)c2nnc(C)n2c2sc(-c3cc4ccc(C(=O)NC5CC5)cc4nn3)c(N)c12
REMARK SMILES IDX 1 1 2 2 3 3 4 4 5 5 6 6 7 7 8 8 9 9 10 10 11 11 12 12 13 13
REMARK SMILES IDX 30 14 32 15 31 16 14 19 15 20 29 21 16 22 28 23 17 24 27 25
REMARK SMILES IDX 18 26 26 27 19 28 20 29 21 30 22 31 23 33 24 34 25 35
REMARK H PARENT 31 17 31 18 22 32
ROOT
ATOM      1  C   UNL     1      -5.068   2.669   2.151  1.00  0.00     0.047 C 
ATOM      2  C   UNL     1      -5.426   1.487   1.292  1.00  0.00    -0.016 C 
ATOM      3  C   UNL     1      -6.698   1.213   0.905  1.00  0.00     0.089 C 
ATOM      4  Cl  UNL     1      -8.066   2.145   1.417  1.00  0.00    -0.080 Cl
ATOM      5  C   UNL     1      -6.976   0.125   0.025  1.00  0.00     0.181 A 
ATOM      6  N   UNL     1      -8.102  -0.331  -0.483  1.00  0.00    -0.129 NA
ATOM      7  N   UNL     1      -7.804  -1.392  -1.293  1.00  0.00    -0.135 NA
ATOM      8  C   UNL     1      -6.499  -1.580  -1.276  1.00  0.00     0.135 A 
ATOM      9  C   UNL     1      -5.805  -2.648  -2.031  1.00  0.00     0.090 C 
ATOM     10  N   UNL     1      -5.914  -0.638  -0.447  1.00  0.00    -0.268 N 
ATOM     11  C   UNL     1      -4.607  -0.367  -0.050  1.00  0.00     0.113 A 
ATOM     12  S   UNL     1      -3.278  -1.230  -0.587  1.00  0.00    -0.113 S 
ATOM     13  C   UNL     1      -2.213  -0.285   0.373  1.00  0.00     0.080 A 
ATOM     14  C   UNL     1      -2.909   0.656   1.125  1.00  0.00     0.062 A 
ATOM     15  C   UNL     1      -4.319   0.657   0.832  1.00  0.00     0.038 A 
ENDROOT
BRANCH  14  16
ATOM     16  N   UNL     1      -2.285   1.457   2.029  1.00  0.00    -0.397 N 
ATOM     17  H   UNL     1      -1.360   1.189   2.363  1.00  0.00     0.156 HD
ATOM     18  H   UNL     1      -2.814   1.838   2.807  1.00  0.00     0.156 HD
ENDBRANCH  14  16
BRANCH  13  19
ATOM     19  C   UNL     1      -0.779  -0.553   0.290  1.00  0.00     0.106 A 
ATOM     20  C   UNL     1       0.144   0.440   0.011  1.00  0.00     0.042 A 
ATOM     21  N   UNL     1      -0.394  -1.824   0.519  1.00  0.00    -0.149 NA
ATOM     22  C   UNL     1       1.502   0.106  -0.042  1.00  0.00     0.004 A 
ATOM     23  N   UNL     1       0.941  -2.156   0.470  1.00  0.00    -0.150 NA
ATOM     24  C   UNL     1       2.484   1.069  -0.331  1.00  0.00     0.011 A 
ATOM     25  C   UNL     1       1.873  -1.230   0.196  1.00  0.00     0.094 A 
ATOM     26  C   UNL     1       3.832   0.711  -0.377  1.00  0.00     0.014 A 
ATOM     27  C   UNL     1       3.218  -1.571   0.144  1.00  0.00     0.044 A 
ATOM     28  C   UNL     1       4.203  -0.613  -0.127  1.00  0.00     0.042 A 
BRANCH  28  29
ATOM     29  C   UNL     1       5.623  -1.055  -0.172  1.00  0.00     0.251 C 
ATOM     30  O   UNL     1       5.889  -2.207  -0.493  1.00  0.00    -0.269 OA
ATOM     31  N   UNL     1       6.566  -0.113   0.193  1.00  0.00    -0.349 N 
ATOM     32  H   UNL     1       6.266   0.752   0.621  1.00  0.00     0.164 HD
BRANCH  31  33
ATOM     33  C   UNL     1       7.961  -0.423   0.230  1.00  0.00     0.082 C 
ATOM     34  C   UNL     1       8.985   0.669   0.382  1.00  0.00     0.027 C 
ATOM     35  C   UNL     1       8.851  -0.055  -0.924  1.00  0.00     0.027 C 
ENDBRANCH  31  33
ENDBRANCH  28  29
ENDBRANCH  13  19
TORSDOF 4
