REMARK SMILES COc1cc(NC(=O)c2sc3nnc(Cl)c(C)c3c2N)ncc1Cl
REMARK SMILES IDX 6 1 7 2 8 3 5 5 3 6 4 7 23 8 22 9 21 10 24 11 2 12 1 13 9 14
REMARK SMILES IDX 10 15 19 16 11 17 18 18 12 19 16 20 13 21 14 22 17 23 15 24
REMARK SMILES IDX 20 25
REMARK H PARENT 6 4 20 26 20 27
ROOT
ATOM      1  N   UNL     1       1.080  -1.241   0.197  1.00  0.00    -0.306 N 
ATOM      2  C   UNL     1       0.300  -0.115   0.053  1.00  0.00     0.269 C 
ATOM      3  O   UNL     1       0.751   1.030   0.065  1.00  0.00    -0.268 OA
ATOM      4  H   UNL     1       0.625  -2.145   0.169  1.00  0.00     0.171 HD
ENDROOT
BRANCH   1   5
ATOM      5  C   UNL     1       2.457  -1.346   0.382  1.00  0.00     0.136 A 
ATOM      6  C   UNL     1       4.694  -0.501   0.651  1.00  0.00     0.142 A 
ATOM      7  C   UNL     1       3.328  -0.265   0.463  1.00  0.00     0.095 A 
ATOM      8  C   UNL     1       5.140  -1.820   0.752  1.00  0.00     0.101 A 
ATOM      9  C   UNL     1       4.201  -2.833   0.660  1.00  0.00     0.138 A 
ATOM     10  N   UNL     1       2.875  -2.624   0.478  1.00  0.00    -0.237 NA
ATOM     11  Cl  UNL     1       6.798  -2.226   0.983  1.00  0.00    -0.079 Cl
BRANCH   6  12
ATOM     12  O   UNL     1       5.648   0.480   0.746  1.00  0.00    -0.495 OA
ATOM     13  C   UNL     1       5.218   1.833   0.655  1.00  0.00     0.278 C 
ENDBRANCH   6  12
ENDBRANCH   1   5
BRANCH   2  14
ATOM     14  C   UNL     1      -1.133  -0.370  -0.123  1.00  0.00     0.118 A 
ATOM     15  S   UNL     1      -1.741  -1.959  -0.327  1.00  0.00    -0.106 S 
ATOM     16  C   UNL     1      -2.161   0.560  -0.183  1.00  0.00     0.065 A 
ATOM     17  C   UNL     1      -3.333  -1.404  -0.492  1.00  0.00     0.149 A 
ATOM     18  C   UNL     1      -3.468  -0.027  -0.365  1.00  0.00     0.043 A 
ATOM     19  N   UNL     1      -4.335  -2.273  -0.719  1.00  0.00    -0.138 NA
ATOM     20  C   UNL     1      -4.791   0.493  -0.437  1.00  0.00     0.001 A 
ATOM     21  N   UNL     1      -5.548  -1.794  -0.850  1.00  0.00    -0.137 NA
ATOM     22  C   UNL     1      -5.770  -0.467  -0.714  1.00  0.00     0.155 A 
ATOM     23  C   UNL     1      -5.133   1.945  -0.274  1.00  0.00     0.048 C 
ATOM     24  Cl  UNL     1      -7.432  -0.064  -0.941  1.00  0.00    -0.060 Cl
BRANCH  16  25
ATOM     25  N   UNL     1      -1.935   1.893  -0.079  1.00  0.00    -0.397 N 
ATOM     26  H   UNL     1      -0.965   2.227  -0.082  1.00  0.00     0.156 HD
ATOM     27  H   UNL     1      -2.558   2.572  -0.504  1.00  0.00     0.156 HD
ENDBRANCH  16  25
ENDBRANCH   2  14
TORSDOF 4
