REMARK SMILES Cc1ccc(-c2cc(F)nc(F)c2)c(NC(=O)c2sc3c(c(C)c(Cl)c4nncn43)c2N)n1
REMARK SMILES IDX 15 1 16 2 17 3 14 5 2 6 3 7 33 8 4 9 5 10 1 11 6 12 7 13
REMARK SMILES IDX 13 14 8 15 11 16 10 17 9 18 12 19 18 20 19 21 31 22 20 23
REMARK SMILES IDX 21 24 30 25 22 26 29 27 26 28 24 29 28 30 27 31 23 32 25 33
REMARK SMILES IDX 32 34
REMARK H PARENT 15 4 32 35 32 36
ROOT
ATOM      1  N   UNL     1      -1.017   1.025  -0.235  1.00  0.00    -0.305 N 
ATOM      2  C   UNL     1      -0.374   0.063   0.512  1.00  0.00     0.269 C 
ATOM      3  O   UNL     1      -0.953  -0.718   1.264  1.00  0.00    -0.268 OA
ATOM      4  H   UNL     1      -0.457   1.815  -0.529  1.00  0.00     0.171 HD
ENDROOT
BRANCH   1   5
ATOM      5  C   UNL     1      -2.384   1.303  -0.321  1.00  0.00     0.141 A 
ATOM      6  C   UNL     1      -3.846   3.096  -0.625  1.00  0.00     0.040 A 
ATOM      7  C   UNL     1      -4.949   2.273  -0.474  1.00  0.00     0.024 A 
ATOM      8  N   UNL     1      -2.581   2.624  -0.565  1.00  0.00    -0.235 NA
ATOM      9  C   UNL     1      -4.738   0.911  -0.284  1.00  0.00     0.014 A 
ATOM     10  C   UNL     1      -3.437   0.378  -0.221  1.00  0.00     0.025 A 
ATOM     11  C   UNL     1      -4.025   4.565  -0.863  1.00  0.00     0.067 C 
BRANCH  10  12
ATOM     12  C   UNL     1      -3.296  -1.086  -0.185  1.00  0.00    -0.006 A 
ATOM     13  C   UNL     1      -3.795  -1.838   0.884  1.00  0.00     0.069 A 
ATOM     14  C   UNL     1      -2.687  -1.782  -1.234  1.00  0.00     0.069 A 
ATOM     15  C   UNL     1      -3.644  -3.214   0.862  1.00  0.00     0.216 A 
ATOM     16  C   UNL     1      -2.593  -3.162  -1.155  1.00  0.00     0.216 A 
ATOM     17  N   UNL     1      -3.061  -3.901  -0.136  1.00  0.00    -0.191 NA
ATOM     18  F   UNL     1      -4.122  -3.919   1.898  1.00  0.00    -0.185 F 
ATOM     19  F   UNL     1      -2.006  -3.812  -2.170  1.00  0.00    -0.185 F 
ENDBRANCH  10  12
ENDBRANCH   1   5
BRANCH   2  20
ATOM     20  C   UNL     1       1.089   0.063   0.392  1.00  0.00     0.118 A 
ATOM     21  S   UNL     1       1.921   1.330  -0.427  1.00  0.00    -0.109 S 
ATOM     22  C   UNL     1       1.983  -0.877   0.905  1.00  0.00     0.065 A 
ATOM     23  C   UNL     1       3.396   0.617  -0.098  1.00  0.00     0.113 A 
ATOM     24  C   UNL     1       3.352  -0.569   0.599  1.00  0.00     0.038 A 
ATOM     25  N   UNL     1       4.600   1.169  -0.497  1.00  0.00    -0.271 N 
ATOM     26  C   UNL     1       4.621  -1.241   0.869  1.00  0.00    -0.016 C 
ATOM     27  C   UNL     1       4.909   2.314  -1.175  1.00  0.00     0.231 A 
ATOM     28  C   UNL     1       5.813   0.563  -0.225  1.00  0.00     0.180 A 
ATOM     29  C   UNL     1       5.797  -0.682   0.474  1.00  0.00     0.089 C 
ATOM     30  N   UNL     1       6.212   2.418  -1.308  1.00  0.00    -0.138 NA
ATOM     31  N   UNL     1       6.782   1.316  -0.710  1.00  0.00    -0.129 NA
ATOM     32  C   UNL     1       4.531  -2.572   1.564  1.00  0.00     0.047 C 
ATOM     33  Cl  UNL     1       7.341  -1.410   0.764  1.00  0.00    -0.080 Cl
BRANCH  22  34
ATOM     34  N   UNL     1       1.550  -1.955   1.599  1.00  0.00    -0.397 N 
ATOM     35  H   UNL     1       2.124  -2.430   2.285  1.00  0.00     0.156 HD
ATOM     36  H   UNL     1       0.558  -2.007   1.859  1.00  0.00     0.156 HD
ENDBRANCH  22  34
ENDBRANCH   2  20
TORSDOF 4
