REMARK SMILES Cc1ccc(C(=O)NC2CC2)c(-c2sc3c(c(C)c(Cl)c4nncn43)c2N)n1
REMARK SMILES IDX 13 1 14 2 15 3 16 4 17 5 18 6 19 7 20 8 21 9 22 10 23 11
REMARK SMILES IDX 24 12 25 13 26 14 12 15 2 16 3 17 28 18 4 19 5 20 1 21 6 22
REMARK SMILES IDX 7 23 8 24 9 26 10 27 11 28 27 29
REMARK H PARENT 8 25 27 30 27 31
ROOT
ATOM      1  C   UNL     1       0.405   0.691   0.077  1.00  0.00     0.079 A 
ATOM      2  S   UNL     1       0.458  -0.739   1.041  1.00  0.00    -0.113 S 
ATOM      3  C   UNL     1       2.048  -1.008   0.599  1.00  0.00     0.113 A 
ATOM      4  C   UNL     1       2.615  -0.064  -0.225  1.00  0.00     0.038 A 
ATOM      5  C   UNL     1       3.995  -0.277  -0.649  1.00  0.00    -0.016 C 
ATOM      6  C   UNL     1       4.547   0.720  -1.630  1.00  0.00     0.047 C 
ATOM      7  C   UNL     1       4.697  -1.352  -0.200  1.00  0.00     0.089 C 
ATOM      8  Cl  UNL     1       6.339  -1.669  -0.647  1.00  0.00    -0.080 Cl
ATOM      9  C   UNL     1       4.092  -2.300   0.681  1.00  0.00     0.180 A 
ATOM     10  N   UNL     1       4.529  -3.401   1.265  1.00  0.00    -0.129 NA
ATOM     11  N   UNL     1       3.495  -3.934   2.004  1.00  0.00    -0.138 NA
ATOM     12  C   UNL     1       2.453  -3.149   1.855  1.00  0.00     0.231 A 
ATOM     13  N   UNL     1       2.771  -2.100   1.040  1.00  0.00    -0.271 N 
ATOM     14  C   UNL     1       1.654   0.972  -0.475  1.00  0.00     0.062 A 
ENDROOT
BRANCH   1  15
ATOM     15  C   UNL     1      -0.839   1.473   0.009  1.00  0.00     0.095 A 
ATOM     16  C   UNL     1      -1.741   3.596   0.389  1.00  0.00     0.038 A 
ATOM     17  C   UNL     1      -3.013   3.161   0.039  1.00  0.00     0.024 A 
ATOM     18  N   UNL     1      -0.661   2.778   0.375  1.00  0.00    -0.251 NA
ATOM     19  C   UNL     1      -3.186   1.834  -0.347  1.00  0.00     0.018 A 
ATOM     20  C   UNL     1      -2.084   0.972  -0.363  1.00  0.00     0.067 A 
ATOM     21  C   UNL     1      -1.517   5.021   0.799  1.00  0.00     0.067 C 
BRANCH  20  22
ATOM     22  C   UNL     1      -2.269  -0.414  -0.835  1.00  0.00     0.253 C 
ATOM     23  O   UNL     1      -1.581  -0.855  -1.745  1.00  0.00    -0.269 OA
ATOM     24  N   UNL     1      -3.259  -1.123  -0.180  1.00  0.00    -0.349 N 
ATOM     25  H   UNL     1      -3.727  -0.706   0.615  1.00  0.00     0.164 HD
BRANCH  24  26
ATOM     26  C   UNL     1      -3.518  -2.497  -0.472  1.00  0.00     0.082 C 
ATOM     27  C   UNL     1      -4.413  -3.318   0.415  1.00  0.00     0.027 C 
ATOM     28  C   UNL     1      -2.936  -3.580   0.394  1.00  0.00     0.027 C 
ENDBRANCH  24  26
ENDBRANCH  20  22
ENDBRANCH   1  15
BRANCH  14  29
ATOM     29  N   UNL     1       1.879   2.118  -1.169  1.00  0.00    -0.397 N 
ATOM     30  H   UNL     1       2.807   2.526  -1.183  1.00  0.00     0.156 HD
ATOM     31  H   UNL     1       1.182   2.858  -1.053  1.00  0.00     0.156 HD
ENDBRANCH  14  29
TORSDOF 4
