REMARK SMILES Cc1ccc(C2CC2)c(NC(=O)c2sc3c(c(C)c(Cl)c4nncn43)c2N)n1
REMARK SMILES IDX 13 1 14 2 15 3 16 4 17 5 18 6 19 7 20 8 21 9 22 10 23 11
REMARK SMILES IDX 24 12 25 13 26 14 11 15 10 16 12 17 9 19 2 20 3 21 28 22
REMARK SMILES IDX 4 23 5 24 1 25 6 26 7 27 8 28 27 29
REMARK H PARENT 10 18 27 30 27 31
ROOT
ATOM      1  C   UNL     1       1.006   0.261   0.233  1.00  0.00     0.118 A 
ATOM      2  S   UNL     1       1.491   0.546  -1.397  1.00  0.00    -0.109 S 
ATOM      3  C   UNL     1       3.102   0.416  -0.976  1.00  0.00     0.113 A 
ATOM      4  C   UNL     1       3.360   0.146   0.349  1.00  0.00     0.038 A 
ATOM      5  C   UNL     1       4.756  -0.015   0.746  1.00  0.00    -0.016 C 
ATOM      6  C   UNL     1       4.997  -0.387   2.184  1.00  0.00     0.047 C 
ATOM      7  C   UNL     1       5.756   0.138  -0.164  1.00  0.00     0.089 C 
ATOM      8  Cl  UNL     1       7.434  -0.027   0.230  1.00  0.00    -0.080 Cl
ATOM      9  C   UNL     1       5.459   0.445  -1.527  1.00  0.00     0.180 A 
ATOM     10  N   UNL     1       6.210   0.645  -2.593  1.00  0.00    -0.129 NA
ATOM     11  N   UNL     1       5.379   0.893  -3.663  1.00  0.00    -0.138 NA
ATOM     12  C   UNL     1       4.141   0.838  -3.227  1.00  0.00     0.231 A 
ATOM     13  N   UNL     1       4.129   0.564  -1.889  1.00  0.00    -0.271 N 
ATOM     14  C   UNL     1       2.115   0.079   1.061  1.00  0.00     0.065 A 
ENDROOT
BRANCH   1  15
ATOM     15  C   UNL     1      -0.411   0.252   0.621  1.00  0.00     0.269 C 
ATOM     16  N   UNL     1      -1.295   0.377  -0.426  1.00  0.00    -0.306 N 
ATOM     17  O   UNL     1      -0.744   0.197   1.802  1.00  0.00    -0.268 OA
ATOM     18  H   UNL     1      -0.932   0.774  -1.282  1.00  0.00     0.171 HD
BRANCH  16  19
ATOM     19  C   UNL     1      -2.691   0.408  -0.398  1.00  0.00     0.136 A 
ATOM     20  C   UNL     1      -4.504   1.360  -1.509  1.00  0.00     0.040 A 
ATOM     21  C   UNL     1      -5.395   0.782  -0.623  1.00  0.00     0.024 A 
ATOM     22  N   UNL     1      -3.170   1.173  -1.413  1.00  0.00    -0.236 NA
ATOM     23  C   UNL     1      -4.890  -0.046   0.375  1.00  0.00     0.010 A 
ATOM     24  C   UNL     1      -3.510  -0.292   0.502  1.00  0.00    -0.002 A 
ATOM     25  C   UNL     1      -5.001   2.235  -2.620  1.00  0.00     0.067 C 
BRANCH  24  26
ATOM     26  C   UNL     1      -3.049  -1.306   1.529  1.00  0.00     0.023 C 
ATOM     27  C   UNL     1      -2.250  -2.518   1.102  1.00  0.00     0.009 C 
ATOM     28  C   UNL     1      -3.664  -2.691   1.558  1.00  0.00     0.009 C 
ENDBRANCH  24  26
ENDBRANCH  16  19
ENDBRANCH   1  15
BRANCH  14  29
ATOM     29  N   UNL     1       1.975  -0.145   2.389  1.00  0.00    -0.397 N 
ATOM     30  H   UNL     1       1.036  -0.051   2.795  1.00  0.00     0.156 HD
ATOM     31  H   UNL     1       2.677   0.153   3.057  1.00  0.00     0.156 HD
ENDBRANCH  14  29
TORSDOF 4
