REMARK SMILES Cc1ccc(C2Cc3ccccc3C2)c(C(=O)Nc2sc3c(c(C)c(Cl)c4nncn43)c2N)n1
REMARK SMILES IDX 19 1 20 2 21 3 22 4 23 5 24 6 25 7 26 8 27 9 28 10 29 11
REMARK SMILES IDX 30 12 31 13 32 14 18 15 16 16 17 17 15 19 2 20 3 21 34 22
REMARK SMILES IDX 4 23 5 24 1 25 6 26 7 27 14 28 8 29 13 30 9 31 12 32 10 33
REMARK SMILES IDX 11 34 33 35
REMARK H PARENT 18 18 33 36 33 37
ROOT
ATOM      1  C   UNL     1       2.437  -0.152  -0.498  1.00  0.00     0.121 A 
ATOM      2  S   UNL     1       2.937   0.252   1.078  1.00  0.00    -0.097 S 
ATOM      3  C   UNL     1       4.512   0.450   0.556  1.00  0.00     0.114 A 
ATOM      4  C   UNL     1       4.735   0.232  -0.786  1.00  0.00     0.040 A 
ATOM      5  C   UNL     1       6.092   0.431  -1.284  1.00  0.00    -0.016 C 
ATOM      6  C   UNL     1       6.285   0.275  -2.766  1.00  0.00     0.047 C 
ATOM      7  C   UNL     1       7.096   0.777  -0.433  1.00  0.00     0.089 C 
ATOM      8  Cl  UNL     1       8.733   1.022  -0.944  1.00  0.00    -0.080 Cl
ATOM      9  C   UNL     1       6.839   0.968   0.960  1.00  0.00     0.180 A 
ATOM     10  N   UNL     1       7.605   1.293   1.984  1.00  0.00    -0.129 NA
ATOM     11  N   UNL     1       6.812   1.353   3.109  1.00  0.00    -0.138 NA
ATOM     12  C   UNL     1       5.583   1.063   2.748  1.00  0.00     0.231 A 
ATOM     13  N   UNL     1       5.540   0.808   1.406  1.00  0.00    -0.271 N 
ATOM     14  C   UNL     1       3.499  -0.174  -1.398  1.00  0.00     0.077 A 
ENDROOT
BRANCH   1  15
ATOM     15  N   UNL     1       1.114  -0.420  -0.791  1.00  0.00    -0.310 N 
ATOM     16  C   UNL     1       0.027  -0.428   0.066  1.00  0.00     0.275 C 
ATOM     17  O   UNL     1       0.043  -0.212   1.269  1.00  0.00    -0.267 OA
ATOM     18  H   UNL     1       0.875  -0.581  -1.765  1.00  0.00     0.171 HD
BRANCH  16  19
ATOM     19  C   UNL     1      -1.264  -0.737  -0.679  1.00  0.00     0.132 A 
ATOM     20  C   UNL     1      -2.140  -1.064  -2.822  1.00  0.00     0.038 A 
ATOM     21  C   UNL     1      -3.420  -1.174  -2.306  1.00  0.00     0.024 A 
ATOM     22  N   UNL     1      -1.064  -0.849  -2.036  1.00  0.00    -0.248 NA
ATOM     23  C   UNL     1      -3.604  -1.075  -0.928  1.00  0.00     0.008 A 
ATOM     24  C   UNL     1      -2.518  -0.872  -0.062  1.00  0.00    -0.013 A 
ATOM     25  C   UNL     1      -1.910  -1.167  -4.300  1.00  0.00     0.067 C 
BRANCH  24  26
ATOM     26  C   UNL     1      -2.712  -0.773   1.451  1.00  0.00     0.030 C 
ATOM     27  C   UNL     1      -2.775   0.709   1.906  1.00  0.00     0.044 C 
ATOM     28  C   UNL     1      -3.996  -1.430   2.034  1.00  0.00     0.044 C 
ATOM     29  C   UNL     1      -4.252   0.939   2.028  1.00  0.00    -0.044 A 
ATOM     30  C   UNL     1      -4.944  -0.273   2.105  1.00  0.00    -0.044 A 
ATOM     31  C   UNL     1      -4.920   2.149   2.111  1.00  0.00     0.004 A 
ATOM     32  C   UNL     1      -6.318  -0.304   2.267  1.00  0.00     0.004 A 
ATOM     33  C   UNL     1      -6.308   2.129   2.261  1.00  0.00     0.000 A 
ATOM     34  C   UNL     1      -7.003   0.911   2.339  1.00  0.00     0.000 A 
ENDBRANCH  24  26
ENDBRANCH  16  19
ENDBRANCH   1  15
BRANCH  14  35
ATOM     35  N   UNL     1       3.329  -0.546  -2.694  1.00  0.00    -0.396 N 
ATOM     36  H   UNL     1       4.118  -0.863  -3.245  1.00  0.00     0.156 HD
ATOM     37  H   UNL     1       2.493  -1.057  -2.963  1.00  0.00     0.156 HD
ENDBRANCH  14  35
TORSDOF 4
