REMARK SMILES Cc1c(Cl)nnc2sc(NC(=O)C3CN(c4ccncc4Cl)C3)c(N)c12
REMARK SMILES IDX 10 1 11 2 12 3 9 5 2 6 3 7 26 8 5 9 24 10 7 11 6 12 8 13
REMARK SMILES IDX 1 14 4 15 25 16 13 19 14 20 23 21 15 22 16 23 17 24 21 25
REMARK SMILES IDX 18 26 20 27 19 28 22 29
REMARK H PARENT 10 4 25 17 25 18
ROOT
ATOM      1  N   UNL     1       0.814   0.022   0.364  1.00  0.00    -0.316 N 
ATOM      2  C   UNL     1      -0.339  -0.712   0.599  1.00  0.00     0.231 C 
ATOM      3  O   UNL     1      -0.402  -1.937   0.704  1.00  0.00    -0.274 OA
ATOM      4  H   UNL     1       0.727   1.027   0.299  1.00  0.00     0.170 HD
ENDROOT
BRANCH   1   5
ATOM      5  C   UNL     1       2.113  -0.454   0.274  1.00  0.00     0.121 A 
ATOM      6  C   UNL     1       5.845  -0.114  -0.043  1.00  0.00     0.001 A 
ATOM      7  C   UNL     1       6.707  -1.214   0.042  1.00  0.00     0.155 A 
ATOM      8  C   UNL     1       4.466  -0.443   0.082  1.00  0.00     0.044 A 
ATOM      9  N   UNL     1       6.327  -2.489   0.279  1.00  0.00    -0.137 NA
ATOM     10  C   UNL     1       3.233   0.305  -0.024  1.00  0.00     0.077 A 
ATOM     11  C   UNL     1       4.165  -1.775   0.349  1.00  0.00     0.150 A 
ATOM     12  N   UNL     1       5.060  -2.774   0.455  1.00  0.00    -0.138 NA
ATOM     13  S   UNL     1       2.509  -2.076   0.550  1.00  0.00    -0.094 S 
ATOM     14  C   UNL     1       6.361   1.274  -0.278  1.00  0.00     0.048 C 
ATOM     15  Cl  UNL     1       8.413  -1.078  -0.171  1.00  0.00    -0.060 Cl
BRANCH  10  16
ATOM     16  N   UNL     1       3.150   1.616  -0.384  1.00  0.00    -0.396 N 
ATOM     17  H   UNL     1       3.944   2.049  -0.847  1.00  0.00     0.156 HD
ATOM     18  H   UNL     1       2.293   1.960  -0.809  1.00  0.00     0.156 HD
ENDBRANCH  10  16
ENDBRANCH   1   5
BRANCH   2  19
ATOM     19  C   UNL     1      -1.585   0.190   0.714  1.00  0.00     0.117 C 
ATOM     20  C   UNL     1      -2.358   0.488  -0.580  1.00  0.00     0.132 C 
ATOM     21  C   UNL     1      -2.903  -0.448   1.179  1.00  0.00     0.132 C 
ATOM     22  N   UNL     1      -3.561   0.384   0.200  1.00  0.00    -0.369 N 
BRANCH  22  23
ATOM     23  C   UNL     1      -4.892   0.221  -0.273  1.00  0.00     0.059 A 
ATOM     24  C   UNL     1      -5.803  -0.507   0.514  1.00  0.00     0.047 A 
ATOM     25  C   UNL     1      -5.386   0.773  -1.467  1.00  0.00     0.082 A 
ATOM     26  C   UNL     1      -7.111  -0.680   0.083  1.00  0.00     0.113 A 
ATOM     27  C   UNL     1      -6.717   0.543  -1.810  1.00  0.00     0.133 A 
ATOM     28  N   UNL     1      -7.590  -0.175  -1.068  1.00  0.00    -0.263 NA
ATOM     29  Cl  UNL     1      -4.460   1.761  -2.538  1.00  0.00    -0.080 Cl
ENDBRANCH  22  23
ENDBRANCH   2  19
TORSDOF 4
