REMARK SMILES Cc1c(Cl)c2nncn2c2sc(-c3cc(C(=O)NC4Cc5ccccc5C4)ncc3Cl)c(N)c12
REMARK SMILES IDX 1 1 2 2 3 3 4 4 5 5 6 6 7 7 8 8 9 9 10 10 11 11 12 12 32 13
REMARK SMILES IDX 34 14 33 15 13 18 14 19 30 20 15 21 29 22 28 23 31 24 16 25
REMARK SMILES IDX 17 26 18 27 19 29 20 30 27 31 21 32 26 33 22 34 25 35 23 36
REMARK SMILES IDX 24 37
REMARK H PARENT 33 16 33 17 18 28
ROOT
ATOM      1  C   UNL     1      -6.530  -0.916  -2.467  1.00  0.00     0.047 C 
ATOM      2  C   UNL     1      -6.469  -0.626  -0.993  1.00  0.00    -0.016 C 
ATOM      3  C   UNL     1      -7.526  -0.801  -0.155  1.00  0.00     0.089 C 
ATOM      4  Cl  UNL     1      -9.056  -1.427  -0.672  1.00  0.00    -0.080 Cl
ATOM      5  C   UNL     1      -7.424  -0.463   1.229  1.00  0.00     0.180 A 
ATOM      6  N   UNL     1      -8.268  -0.530   2.241  1.00  0.00    -0.129 NA
ATOM      7  N   UNL     1      -7.632  -0.048   3.363  1.00  0.00    -0.138 NA
ATOM      8  C   UNL     1      -6.415   0.302   3.012  1.00  0.00     0.231 A 
ATOM      9  N   UNL     1      -6.227   0.060   1.681  1.00  0.00    -0.271 N 
ATOM     10  C   UNL     1      -5.141   0.240   0.844  1.00  0.00     0.112 A 
ATOM     11  S   UNL     1      -3.688   0.873   1.377  1.00  0.00    -0.114 S 
ATOM     12  C   UNL     1      -3.024   0.726  -0.201  1.00  0.00     0.062 A 
ATOM     13  C   UNL     1      -3.925   0.160  -1.097  1.00  0.00     0.060 A 
ATOM     14  C   UNL     1      -5.202  -0.101  -0.490  1.00  0.00     0.038 A 
ENDROOT
BRANCH  13  15
ATOM     15  N   UNL     1      -3.584  -0.088  -2.384  1.00  0.00    -0.397 N 
ATOM     16  H   UNL     1      -4.094  -0.747  -2.960  1.00  0.00     0.156 HD
ATOM     17  H   UNL     1      -2.619  -0.005  -2.694  1.00  0.00     0.156 HD
ENDBRANCH  13  15
BRANCH  12  18
ATOM     18  C   UNL     1      -1.643   1.168  -0.415  1.00  0.00     0.016 A 
ATOM     19  C   UNL     1      -0.607   0.239  -0.265  1.00  0.00     0.045 A 
ATOM     20  C   UNL     1      -1.327   2.483  -0.779  1.00  0.00     0.068 A 
ATOM     21  C   UNL     1       0.698   0.661  -0.479  1.00  0.00     0.128 A 
ATOM     22  C   UNL     1       0.011   2.808  -0.967  1.00  0.00     0.133 A 
ATOM     23  N   UNL     1       1.036   1.934  -0.828  1.00  0.00    -0.249 NA
ATOM     24  Cl  UNL     1      -2.519   3.707  -1.005  1.00  0.00    -0.082 Cl
BRANCH  21  25
ATOM     25  C   UNL     1       1.830  -0.309  -0.327  1.00  0.00     0.270 C 
ATOM     26  O   UNL     1       1.634  -1.467   0.021  1.00  0.00    -0.268 OA
ATOM     27  N   UNL     1       3.074   0.220  -0.598  1.00  0.00    -0.347 N 
ATOM     28  H   UNL     1       3.102   1.228  -0.738  1.00  0.00     0.164 HD
BRANCH  27  29
ATOM     29  C   UNL     1       4.298  -0.514  -0.337  1.00  0.00     0.091 C 
ATOM     30  C   UNL     1       5.522   0.097  -1.053  1.00  0.00     0.061 C 
ATOM     31  C   UNL     1       4.654  -0.573   1.166  1.00  0.00     0.061 C 
ATOM     32  C   UNL     1       6.637  -0.298  -0.137  1.00  0.00    -0.043 A 
ATOM     33  C   UNL     1       6.147  -0.675   1.117  1.00  0.00    -0.043 A 
ATOM     34  C   UNL     1       7.998  -0.279  -0.396  1.00  0.00     0.004 A 
ATOM     35  C   UNL     1       7.007  -1.043   2.139  1.00  0.00     0.004 A 
ATOM     36  C   UNL     1       8.871  -0.659   0.625  1.00  0.00     0.000 A 
ATOM     37  C   UNL     1       8.379  -1.038   1.883  1.00  0.00     0.000 A 
ENDBRANCH  27  29
ENDBRANCH  21  25
ENDBRANCH  12  18
TORSDOF 4
