REMARK SMILES Cc1c(Cl)c2nncn2c2sc(C(=O)Nc3cc4ccc(C5CC5)cc4nn3)c(N)c12
REMARK SMILES IDX 1 1 2 2 3 3 4 4 5 5 6 6 7 7 8 8 9 9 10 10 11 11 12 12 29 13
REMARK SMILES IDX 31 14 30 15 13 18 14 19 15 20 16 22 17 23 28 24 18 25 27 26
REMARK SMILES IDX 19 27 26 28 20 29 25 30 21 31 22 32 23 33 24 34
REMARK H PARENT 30 16 30 17 15 21
ROOT
ATOM      1  C   UNL     1      -6.666  -0.747   1.787  1.00  0.00     0.047 C 
ATOM      2  C   UNL     1      -6.356  -0.051   0.489  1.00  0.00    -0.016 C 
ATOM      3  C   UNL     1      -7.316   0.402  -0.362  1.00  0.00     0.089 C 
ATOM      4  Cl  UNL     1      -9.012   0.281  -0.036  1.00  0.00    -0.080 Cl
ATOM      5  C   UNL     1      -6.959   1.011  -1.604  1.00  0.00     0.180 A 
ATOM      6  N   UNL     1      -7.663   1.529  -2.593  1.00  0.00    -0.129 NA
ATOM      7  N   UNL     1      -6.786   1.965  -3.561  1.00  0.00    -0.138 NA
ATOM      8  C   UNL     1      -5.568   1.705  -3.143  1.00  0.00     0.231 A 
ATOM      9  N   UNL     1      -5.615   1.108  -1.915  1.00  0.00    -0.271 N 
ATOM     10  C   UNL     1      -4.627   0.657  -1.058  1.00  0.00     0.113 A 
ATOM     11  S   UNL     1      -2.999   0.758  -1.420  1.00  0.00    -0.109 S 
ATOM     12  C   UNL     1      -2.583   0.042   0.092  1.00  0.00     0.118 A 
ATOM     13  C   UNL     1      -3.725  -0.249   0.840  1.00  0.00     0.065 A 
ATOM     14  C   UNL     1      -4.942   0.090   0.156  1.00  0.00     0.038 A 
ENDROOT
BRANCH  13  15
ATOM     15  N   UNL     1      -3.638  -0.801   2.073  1.00  0.00    -0.397 N 
ATOM     16  H   UNL     1      -2.711  -0.893   2.503  1.00  0.00     0.156 HD
ATOM     17  H   UNL     1      -4.348  -0.654   2.781  1.00  0.00     0.156 HD
ENDBRANCH  13  15
BRANCH  12  18
ATOM     18  C   UNL     1      -1.182  -0.170   0.475  1.00  0.00     0.269 C 
ATOM     19  O   UNL     1      -0.875  -0.556   1.602  1.00  0.00    -0.268 OA
ATOM     20  N   UNL     1      -0.261   0.097  -0.513  1.00  0.00    -0.304 N 
ATOM     21  H   UNL     1      -0.604   0.412  -1.411  1.00  0.00     0.171 HD
BRANCH  20  22
ATOM     22  C   UNL     1       1.130  -0.005  -0.468  1.00  0.00     0.156 A 
ATOM     23  C   UNL     1       1.862  -0.416   0.629  1.00  0.00     0.059 A 
ATOM     24  N   UNL     1       1.751   0.337  -1.613  1.00  0.00    -0.132 NA
ATOM     25  C   UNL     1       3.261  -0.473   0.538  1.00  0.00     0.006 A 
ATOM     26  N   UNL     1       3.124   0.285  -1.711  1.00  0.00    -0.148 NA
ATOM     27  C   UNL     1       4.054  -0.886   1.620  1.00  0.00     0.011 A 
ATOM     28  C   UNL     1       3.871  -0.108  -0.669  1.00  0.00     0.093 A 
ATOM     29  C   UNL     1       5.444  -0.932   1.499  1.00  0.00     0.005 A 
ATOM     30  C   UNL     1       5.260  -0.163  -0.763  1.00  0.00     0.035 A 
ATOM     31  C   UNL     1       6.079  -0.563   0.307  1.00  0.00    -0.043 A 
BRANCH  31  32
ATOM     32  C   UNL     1       7.581  -0.624   0.164  1.00  0.00     0.019 C 
ATOM     33  C   UNL     1       8.465   0.124   1.136  1.00  0.00     0.009 C 
ATOM     34  C   UNL     1       8.349   0.599  -0.280  1.00  0.00     0.009 C 
ENDBRANCH  31  32
ENDBRANCH  20  22
ENDBRANCH  12  18
TORSDOF 4
