REMARK SMILES COc1cncc(NC(=O)c2sc3c(c(C)c(Cl)c4nncn43)c2N)c1
REMARK SMILES IDX 8 1 9 2 10 3 7 5 3 6 4 7 26 8 5 9 6 10 2 11 1 12 11 13 12 14
REMARK SMILES IDX 24 15 13 16 14 17 23 18 15 19 22 20 19 21 17 22 21 23 20 24
REMARK SMILES IDX 16 25 18 26 25 27
REMARK H PARENT 8 4 25 28 25 29
ROOT
ATOM      1  N   UNL     1       1.408   0.853   0.162  1.00  0.00    -0.320 N 
ATOM      2  C   UNL     1       0.690  -0.312  -0.063  1.00  0.00     0.267 C 
ATOM      3  O   UNL     1       1.209  -1.403  -0.291  1.00  0.00    -0.268 OA
ATOM      4  H   UNL     1       0.850   1.679   0.343  1.00  0.00     0.170 HD
ENDROOT
BRANCH   1   5
ATOM      5  C   UNL     1       2.809   1.027   0.174  1.00  0.00     0.063 A 
ATOM      6  C   UNL     1       5.110   0.295  -0.017  1.00  0.00     0.139 A 
ATOM      7  C   UNL     1       5.497   1.603   0.245  1.00  0.00     0.157 A 
ATOM      8  C   UNL     1       3.740   0.015  -0.051  1.00  0.00     0.075 A 
ATOM      9  N   UNL     1       4.629   2.617   0.469  1.00  0.00    -0.259 NA
ATOM     10  C   UNL     1       3.314   2.302   0.428  1.00  0.00     0.137 A 
BRANCH   6  11
ATOM     11  O   UNL     1       5.932  -0.771  -0.251  1.00  0.00    -0.495 OA
ATOM     12  C   UNL     1       7.332  -0.519  -0.219  1.00  0.00     0.278 C 
ENDBRANCH   6  11
ENDBRANCH   1   5
BRANCH   2  13
ATOM     13  C   UNL     1      -0.770  -0.158  -0.010  1.00  0.00     0.118 A 
ATOM     14  S   UNL     1      -1.504   1.398   0.107  1.00  0.00    -0.109 S 
ATOM     15  C   UNL     1      -1.734  -1.165  -0.076  1.00  0.00     0.065 A 
ATOM     16  C   UNL     1      -3.030   0.715   0.078  1.00  0.00     0.113 A 
ATOM     17  C   UNL     1      -3.076  -0.658  -0.001  1.00  0.00     0.038 A 
ATOM     18  N   UNL     1      -4.189   1.468   0.131  1.00  0.00    -0.271 N 
ATOM     19  C   UNL     1      -4.391  -1.292   0.013  1.00  0.00    -0.016 C 
ATOM     20  C   UNL     1      -4.411   2.814   0.198  1.00  0.00     0.231 A 
ATOM     21  C   UNL     1      -5.444   0.888   0.114  1.00  0.00     0.180 A 
ATOM     22  C   UNL     1      -5.522  -0.537   0.061  1.00  0.00     0.089 C 
ATOM     23  N   UNL     1      -5.702   3.054   0.217  1.00  0.00    -0.138 NA
ATOM     24  N   UNL     1      -6.354   1.843   0.163  1.00  0.00    -0.129 NA
ATOM     25  C   UNL     1      -4.402  -2.796   0.006  1.00  0.00     0.047 C 
ATOM     26  Cl  UNL     1      -7.116  -1.211   0.070  1.00  0.00    -0.080 Cl
BRANCH  15  27
ATOM     27  N   UNL     1      -1.386  -2.468  -0.188  1.00  0.00    -0.397 N 
ATOM     28  H   UNL     1      -1.982  -3.148  -0.645  1.00  0.00     0.156 HD
ATOM     29  H   UNL     1      -0.397  -2.694  -0.346  1.00  0.00     0.156 HD
ENDBRANCH  15  27
ENDBRANCH   2  13
TORSDOF 4
