REMARK SMILES Cc1c(Cl)c2nnc(C)n2c2sc(-c3cc(C(=O)NC4Cc5ccccc5C4)c(Cl)cn3)c(N)c12
REMARK SMILES IDX 1 1 2 2 3 3 4 4 5 5 6 6 7 7 8 8 9 9 10 10 11 11 12 12 13 13
REMARK SMILES IDX 33 14 35 15 34 16 14 19 15 20 32 21 16 22 31 23 29 24 30 25
REMARK SMILES IDX 17 26 18 27 19 28 20 30 21 31 28 32 22 33 27 34 23 35 26 36
REMARK SMILES IDX 24 37 25 38
REMARK H PARENT 34 17 34 18 19 29
ROOT
ATOM      1  C   UNL     1      -6.502  -2.043  -2.076  1.00  0.00     0.047 C 
ATOM      2  C   UNL     1      -6.187  -1.281  -0.818  1.00  0.00    -0.016 C 
ATOM      3  C   UNL     1      -7.136  -0.877   0.065  1.00  0.00     0.089 C 
ATOM      4  Cl  UNL     1      -8.819  -1.251  -0.114  1.00  0.00    -0.080 Cl
ATOM      5  C   UNL     1      -6.786  -0.097   1.207  1.00  0.00     0.181 A 
ATOM      6  N   UNL     1      -7.508   0.398   2.191  1.00  0.00    -0.129 NA
ATOM      7  N   UNL     1      -6.674   1.095   3.022  1.00  0.00    -0.135 NA
ATOM      8  C   UNL     1      -5.448   1.023   2.543  1.00  0.00     0.135 A 
ATOM      9  C   UNL     1      -4.272   1.664   3.174  1.00  0.00     0.090 C 
ATOM     10  N   UNL     1      -5.455   0.263   1.385  1.00  0.00    -0.268 N 
ATOM     11  C   UNL     1      -4.474  -0.155   0.489  1.00  0.00     0.113 A 
ATOM     12  S   UNL     1      -2.854   0.234   0.635  1.00  0.00    -0.113 S 
ATOM     13  C   UNL     1      -2.447  -0.657  -0.782  1.00  0.00     0.078 A 
ATOM     14  C   UNL     1      -3.583  -1.270  -1.313  1.00  0.00     0.062 A 
ATOM     15  C   UNL     1      -4.787  -0.941  -0.601  1.00  0.00     0.038 A 
ENDROOT
BRANCH  14  16
ATOM     16  N   UNL     1      -3.504  -2.082  -2.398  1.00  0.00    -0.397 N 
ATOM     17  H   UNL     1      -4.127  -2.878  -2.478  1.00  0.00     0.156 HD
ATOM     18  H   UNL     1      -2.555  -2.366  -2.669  1.00  0.00     0.156 HD
ENDBRANCH  14  16
BRANCH  13  19
ATOM     19  C   UNL     1      -1.042  -0.728  -1.232  1.00  0.00     0.083 A 
ATOM     20  C   UNL     1      -0.110   0.280  -1.013  1.00  0.00     0.045 A 
ATOM     21  N   UNL     1      -0.718  -1.863  -1.901  1.00  0.00    -0.254 NA
ATOM     22  C   UNL     1       1.211   0.125  -1.472  1.00  0.00     0.062 A 
ATOM     23  C   UNL     1       0.556  -1.988  -2.344  1.00  0.00     0.133 A 
ATOM     24  C   UNL     1       1.552  -1.038  -2.163  1.00  0.00     0.072 A 
ATOM     25  Cl  UNL     1       3.101  -1.375  -2.839  1.00  0.00    -0.082 Cl
BRANCH  22  26
ATOM     26  C   UNL     1       2.132   1.260  -1.177  1.00  0.00     0.253 C 
ATOM     27  O   UNL     1       1.665   2.372  -0.949  1.00  0.00    -0.269 OA
ATOM     28  N   UNL     1       3.479   0.998  -1.116  1.00  0.00    -0.349 N 
ATOM     29  H   UNL     1       3.800   0.037  -1.149  1.00  0.00     0.164 HD
BRANCH  28  30
ATOM     30  C   UNL     1       4.444   2.005  -0.660  1.00  0.00     0.091 C 
ATOM     31  C   UNL     1       5.871   1.647  -1.132  1.00  0.00     0.061 C 
ATOM     32  C   UNL     1       4.511   2.043   0.886  1.00  0.00     0.061 C 
ATOM     33  C   UNL     1       6.361   0.810   0.012  1.00  0.00    -0.043 A 
ATOM     34  C   UNL     1       5.589   1.035   1.158  1.00  0.00    -0.043 A 
ATOM     35  C   UNL     1       7.441  -0.055   0.036  1.00  0.00     0.004 A 
ATOM     36  C   UNL     1       5.882   0.401   2.353  1.00  0.00     0.004 A 
ATOM     37  C   UNL     1       7.736  -0.709   1.233  1.00  0.00     0.000 A 
ATOM     38  C   UNL     1       6.963  -0.483   2.383  1.00  0.00     0.000 A 
ENDBRANCH  28  30
ENDBRANCH  22  26
ENDBRANCH  13  19
TORSDOF 4
