REMARK SMILES Cc1c(Cl)c2nncn2c2sc(N3CC([NH+]4CC([NH2+]C5Cc6ccccc6C5)C4)C3)c(N)c12
REMARK SMILES IDX 13 1 14 2 15 3 30 4 12 5 2 6 3 7 33 8 5 9 31 10 10 11 6 12
REMARK SMILES IDX 9 13 11 14 7 15 8 16 1 17 4 18 32 19 16 22 17 23 29 24 18 25
REMARK SMILES IDX 19 27 20 30 21 31 28 32 22 33 27 34 23 35 26 36 24 37 25 38
REMARK H PARENT 32 20 32 21 16 26 19 28 19 29
ROOT
ATOM      1  N   UNL     1       1.335  -0.458   1.990  1.00  0.00    -0.350 N 
ATOM      2  C   UNL     1       0.952  -1.852   2.082  1.00  0.00     0.184 C 
ATOM      3  C   UNL     1      -0.115  -1.400   3.099  1.00  0.00     0.223 C 
ATOM      4  C   UNL     1       0.838  -0.199   3.323  1.00  0.00     0.184 C 
ENDROOT
BRANCH   1   5
ATOM      5  C   UNL     1       2.556  -0.041   1.511  1.00  0.00     0.117 A 
ATOM      6  C   UNL     1       5.754   2.019   1.321  1.00  0.00    -0.016 C 
ATOM      7  C   UNL     1       6.834   1.849   0.510  1.00  0.00     0.089 C 
ATOM      8  C   UNL     1       4.600   1.126   1.222  1.00  0.00     0.040 A 
ATOM      9  C   UNL     1       6.873   0.781  -0.435  1.00  0.00     0.180 A 
ATOM     10  C   UNL     1       3.300   1.100   1.845  1.00  0.00     0.076 A 
ATOM     11  C   UNL     1       4.687   0.079   0.334  1.00  0.00     0.114 A 
ATOM     12  N   UNL     1       7.760   0.396  -1.332  1.00  0.00    -0.129 NA
ATOM     13  N   UNL     1       5.799  -0.088  -0.473  1.00  0.00    -0.271 N 
ATOM     14  S   UNL     1       3.371  -0.944   0.275  1.00  0.00    -0.097 S 
ATOM     15  N   UNL     1       7.280  -0.733  -1.955  1.00  0.00    -0.138 NA
ATOM     16  C   UNL     1       6.112  -1.014  -1.427  1.00  0.00     0.231 A 
ATOM     17  C   UNL     1       5.701   3.072   2.395  1.00  0.00     0.047 C 
ATOM     18  Cl  UNL     1       8.227   2.874   0.556  1.00  0.00    -0.080 Cl
BRANCH  10  19
ATOM     19  N   UNL     1       2.819   2.058   2.678  1.00  0.00    -0.396 N 
ATOM     20  H   UNL     1       1.820   2.198   2.760  1.00  0.00     0.156 HD
ATOM     21  H   UNL     1       3.287   2.958   2.746  1.00  0.00     0.156 HD
ENDBRANCH  10  19
ENDBRANCH   1   5
BRANCH   3  22
ATOM     22  N   UNL     1      -1.487  -1.025   2.572  1.00  0.00    -0.319 N 
ATOM     23  C   UNL     1      -2.286  -2.131   1.997  1.00  0.00     0.334 C 
ATOM     24  C   UNL     1      -1.606  -0.273   1.298  1.00  0.00     0.334 C 
ATOM     25  C   UNL     1      -2.857  -1.134   0.934  1.00  0.00     0.293 C 
ATOM     26  H   UNL     1      -1.991  -0.545   3.341  1.00  0.00     0.348 HD
BRANCH  25  27
ATOM     27  N   UNL     1      -2.931  -1.663  -0.477  1.00  0.00    -0.331 N 
ATOM     28  H   UNL     1      -3.614  -2.436  -0.566  1.00  0.00     0.347 HD
ATOM     29  H   UNL     1      -2.035  -2.051  -0.816  1.00  0.00     0.347 HD
BRANCH  27  30
ATOM     30  C   UNL     1      -3.364  -0.561  -1.425  1.00  0.00     0.191 C 
ATOM     31  C   UNL     1      -3.203  -1.030  -2.889  1.00  0.00     0.101 C 
ATOM     32  C   UNL     1      -4.851  -0.186  -1.235  1.00  0.00     0.101 C 
ATOM     33  C   UNL     1      -4.293  -0.259  -3.555  1.00  0.00    -0.039 A 
ATOM     34  C   UNL     1      -5.223   0.216  -2.623  1.00  0.00    -0.039 A 
ATOM     35  C   UNL     1      -4.462  -0.035  -4.910  1.00  0.00     0.004 A 
ATOM     36  C   UNL     1      -6.342   0.924  -3.027  1.00  0.00     0.004 A 
ATOM     37  C   UNL     1      -5.581   0.689  -5.325  1.00  0.00     0.000 A 
ATOM     38  C   UNL     1      -6.513   1.164  -4.391  1.00  0.00     0.000 A 
ENDBRANCH  27  30
ENDBRANCH  25  27
ENDBRANCH   3  22
TORSDOF 5
