REMARK SMILES O=C(NC1Cc2ccccc2C1)C1CN(c2ccncc2Cl)C1
REMARK SMILES IDX 13 1 14 2 15 3 23 4 2 5 1 6 3 7 4 9 5 10 12 11 6 12 11 13
REMARK SMILES IDX 7 14 10 15 8 16 9 17 16 18 17 19 21 20 18 21 20 22 19 23
REMARK SMILES IDX 22 24
REMARK H PARENT 3 8
ROOT
ATOM      1  C   UNL     1       1.448  -0.018  -0.432  1.00  0.00     0.117 C 
ATOM      2  C   UNL     1       2.570  -0.859   0.193  1.00  0.00     0.132 C 
ATOM      3  N   UNL     1       3.498   0.078  -0.383  1.00  0.00    -0.369 N 
ATOM      4  C   UNL     1       2.490   1.109  -0.430  1.00  0.00     0.132 C 
ENDROOT
BRANCH   1   5
ATOM      5  C   UNL     1       0.167   0.183   0.404  1.00  0.00     0.226 C 
ATOM      6  O   UNL     1       0.065   0.966   1.349  1.00  0.00    -0.275 OA
ATOM      7  N   UNL     1      -0.902  -0.590  -0.011  1.00  0.00    -0.352 N 
ATOM      8  H   UNL     1      -0.821  -1.105  -0.878  1.00  0.00     0.163 HD
BRANCH   7   9
ATOM      9  C   UNL     1      -2.222  -0.442   0.586  1.00  0.00     0.090 C 
ATOM     10  C   UNL     1      -3.156  -1.630   0.265  1.00  0.00     0.061 C 
ATOM     11  C   UNL     1      -2.956   0.833   0.108  1.00  0.00     0.061 C 
ATOM     12  C   UNL     1      -4.502  -0.978   0.298  1.00  0.00    -0.043 A 
ATOM     13  C   UNL     1      -4.390   0.413   0.208  1.00  0.00    -0.043 A 
ATOM     14  C   UNL     1      -5.742  -1.592   0.361  1.00  0.00     0.004 A 
ATOM     15  C   UNL     1      -5.514   1.220   0.180  1.00  0.00     0.004 A 
ATOM     16  C   UNL     1      -6.882  -0.785   0.345  1.00  0.00     0.000 A 
ATOM     17  C   UNL     1      -6.769   0.611   0.255  1.00  0.00     0.000 A 
ENDBRANCH   7   9
ENDBRANCH   1   5
BRANCH   3  18
ATOM     18  C   UNL     1       4.867   0.263  -0.049  1.00  0.00     0.059 A 
ATOM     19  C   UNL     1       5.422   1.550  -0.168  1.00  0.00     0.047 A 
ATOM     20  C   UNL     1       5.733  -0.765   0.361  1.00  0.00     0.082 A 
ATOM     21  C   UNL     1       6.756   1.765   0.146  1.00  0.00     0.113 A 
ATOM     22  C   UNL     1       7.058  -0.446   0.652  1.00  0.00     0.133 A 
ATOM     23  N   UNL     1       7.591   0.794   0.560  1.00  0.00    -0.263 NA
ATOM     24  Cl  UNL     1       5.279  -2.424   0.498  1.00  0.00    -0.080 Cl
ENDBRANCH   3  18
TORSDOF 3
