REMARK SMILES O=C(NC1Cc2ccccc2C1)C1CN(c2cncc(F)c2)C1
REMARK SMILES IDX 13 1 14 2 15 3 23 4 2 5 1 6 3 7 4 9 5 10 12 11 6 12 11 13
REMARK SMILES IDX 7 14 10 15 8 16 9 17 16 18 17 19 22 20 18 21 20 22 19 23
REMARK SMILES IDX 21 24
REMARK H PARENT 3 8
ROOT
ATOM      1  C   UNL     1       1.453  -0.347  -0.393  1.00  0.00     0.117 C 
ATOM      2  C   UNL     1       2.721  -0.974   0.212  1.00  0.00     0.132 C 
ATOM      3  N   UNL     1       3.448   0.104  -0.401  1.00  0.00    -0.368 N 
ATOM      4  C   UNL     1       2.284   0.948  -0.423  1.00  0.00     0.132 C 
ENDROOT
BRANCH   1   5
ATOM      5  C   UNL     1       0.177  -0.350   0.476  1.00  0.00     0.226 C 
ATOM      6  O   UNL     1       0.136   0.020   1.651  1.00  0.00    -0.275 OA
ATOM      7  N   UNL     1      -0.956  -0.802  -0.177  1.00  0.00    -0.352 N 
ATOM      8  H   UNL     1      -0.913  -0.951  -1.177  1.00  0.00     0.163 HD
BRANCH   7   9
ATOM      9  C   UNL     1      -2.265  -0.758   0.460  1.00  0.00     0.090 C 
ATOM     10  C   UNL     1      -3.308  -1.636  -0.266  1.00  0.00     0.061 C 
ATOM     11  C   UNL     1      -2.858   0.670   0.516  1.00  0.00     0.061 C 
ATOM     12  C   UNL     1      -4.582  -0.913   0.038  1.00  0.00    -0.043 A 
ATOM     13  C   UNL     1      -4.328   0.389   0.478  1.00  0.00    -0.043 A 
ATOM     14  C   UNL     1      -5.879  -1.377  -0.110  1.00  0.00     0.004 A 
ATOM     15  C   UNL     1      -5.364   1.256   0.781  1.00  0.00     0.004 A 
ATOM     16  C   UNL     1      -6.930  -0.514   0.204  1.00  0.00     0.000 A 
ATOM     17  C   UNL     1      -6.675   0.794   0.646  1.00  0.00     0.000 A 
ENDBRANCH   7   9
ENDBRANCH   1   5
BRANCH   3  18
ATOM     18  C   UNL     1       4.770   0.500  -0.119  1.00  0.00     0.058 A 
ATOM     19  C   UNL     1       5.221   1.805  -0.346  1.00  0.00     0.137 A 
ATOM     20  C   UNL     1       5.712  -0.406   0.374  1.00  0.00     0.068 A 
ATOM     21  N   UNL     1       6.483   2.249  -0.109  1.00  0.00    -0.260 NA
ATOM     22  C   UNL     1       7.010   0.018   0.627  1.00  0.00     0.143 A 
ATOM     23  C   UNL     1       7.351   1.335   0.378  1.00  0.00     0.150 A 
ATOM     24  F   UNL     1       7.919  -0.843   1.103  1.00  0.00    -0.205 F 
ENDBRANCH   3  18
TORSDOF 3
