REMARK SMILES Cc1c(Cl)c2nncn2c2sc(C(=O)Nc3ccncc3Cl)c(N)c12
REMARK SMILES IDX 1 1 2 2 3 3 4 4 5 5 6 6 7 7 8 8 9 9 10 10 11 11 12 12 23 13
REMARK SMILES IDX 25 14 24 15 13 18 14 19 15 20 16 22 17 23 21 24 18 25 20 26
REMARK SMILES IDX 19 27 22 28
REMARK H PARENT 24 16 24 17 15 21
ROOT
ATOM      1  C   UNL     1      -3.576  -0.065   2.876  1.00  0.00     0.047 C 
ATOM      2  C   UNL     1      -3.510   0.085   1.381  1.00  0.00    -0.016 C 
ATOM      3  C   UNL     1      -4.613   0.175   0.590  1.00  0.00     0.089 C 
ATOM      4  Cl  UNL     1      -6.230   0.178   1.210  1.00  0.00    -0.080 Cl
ATOM      5  C   UNL     1      -4.486   0.268  -0.829  1.00  0.00     0.180 A 
ATOM      6  N   UNL     1      -5.362   0.366  -1.811  1.00  0.00    -0.129 NA
ATOM      7  N   UNL     1      -4.670   0.406  -3.001  1.00  0.00    -0.138 NA
ATOM      8  C   UNL     1      -3.389   0.332  -2.720  1.00  0.00     0.231 A 
ATOM      9  N   UNL     1      -3.213   0.247  -1.369  1.00  0.00    -0.271 N 
ATOM     10  C   UNL     1      -2.081   0.161  -0.578  1.00  0.00     0.113 A 
ATOM     11  S   UNL     1      -0.535   0.126  -1.212  1.00  0.00    -0.109 S 
ATOM     12  C   UNL     1       0.148   0.041   0.369  1.00  0.00     0.118 A 
ATOM     13  C   UNL     1      -0.848   0.050   1.347  1.00  0.00     0.065 A 
ATOM     14  C   UNL     1      -2.173   0.097   0.793  1.00  0.00     0.038 A 
ENDROOT
BRANCH  13  15
ATOM     15  N   UNL     1      -0.542   0.007   2.664  1.00  0.00    -0.397 N 
ATOM     16  H   UNL     1       0.444   0.090   2.939  1.00  0.00     0.156 HD
ATOM     17  H   UNL     1      -1.144   0.412   3.372  1.00  0.00     0.156 HD
ENDBRANCH  13  15
BRANCH  12  18
ATOM     18  C   UNL     1       1.602  -0.001   0.570  1.00  0.00     0.267 C 
ATOM     19  O   UNL     1       2.098   0.074   1.692  1.00  0.00    -0.268 OA
ATOM     20  N   UNL     1       2.347  -0.128  -0.591  1.00  0.00    -0.320 N 
ATOM     21  H   UNL     1       1.818  -0.179  -1.456  1.00  0.00     0.170 HD
BRANCH  20  22
ATOM     22  C   UNL     1       3.753  -0.198  -0.741  1.00  0.00     0.063 A 
ATOM     23  C   UNL     1       4.645  -0.150   0.329  1.00  0.00     0.048 A 
ATOM     24  C   UNL     1       4.278  -0.322  -2.036  1.00  0.00     0.082 A 
ATOM     25  C   UNL     1       6.007  -0.227   0.068  1.00  0.00     0.113 A 
ATOM     26  C   UNL     1       5.654  -0.392  -2.196  1.00  0.00     0.133 A 
ATOM     27  N   UNL     1       6.533  -0.346  -1.169  1.00  0.00    -0.263 NA
ATOM     28  Cl  UNL     1       3.257  -0.390  -3.428  1.00  0.00    -0.080 Cl
ENDBRANCH  20  22
ENDBRANCH  12  18
TORSDOF 3
