REMARK SMILES COc1cc(NC(=O)c2sc3c(c(C)c(Cl)c4nncn43)c2N)c(Cl)cn1
REMARK SMILES IDX 6 1 7 2 8 3 5 5 3 6 4 7 27 8 26 9 24 10 25 11 2 12 1 13 9 14
REMARK SMILES IDX 10 15 22 16 11 17 12 18 21 19 13 20 20 21 17 22 15 23 19 24
REMARK SMILES IDX 18 25 14 26 16 27 23 28
REMARK H PARENT 6 4 23 29 23 30
ROOT
ATOM      1  N   UNL     1       1.424   0.815   0.219  1.00  0.00    -0.320 N 
ATOM      2  C   UNL     1       0.734  -0.289  -0.254  1.00  0.00     0.267 C 
ATOM      3  O   UNL     1       1.267  -1.213  -0.867  1.00  0.00    -0.268 OA
ATOM      4  H   UNL     1       0.867   1.509   0.708  1.00  0.00     0.170 HD
ENDROOT
BRANCH   1   5
ATOM      5  C   UNL     1       2.804   1.114   0.113  1.00  0.00     0.067 A 
ATOM      6  C   UNL     1       5.059   0.679  -0.570  1.00  0.00     0.215 A 
ATOM      7  C   UNL     1       3.727   0.286  -0.525  1.00  0.00     0.096 A 
ATOM      8  N   UNL     1       5.527   1.823  -0.029  1.00  0.00    -0.220 NA
ATOM      9  C   UNL     1       4.619   2.613   0.586  1.00  0.00     0.137 A 
ATOM     10  C   UNL     1       3.269   2.308   0.682  1.00  0.00     0.083 A 
ATOM     11  Cl  UNL     1       2.209   3.402   1.495  1.00  0.00    -0.080 Cl
BRANCH   6  12
ATOM     12  O   UNL     1       5.925  -0.181  -1.214  1.00  0.00    -0.481 OA
ATOM     13  C   UNL     1       7.272   0.281  -1.227  1.00  0.00     0.280 C 
ENDBRANCH   6  12
ENDBRANCH   1   5
BRANCH   2  14
ATOM     14  C   UNL     1      -0.706  -0.287   0.030  1.00  0.00     0.118 A 
ATOM     15  S   UNL     1      -1.415   0.908   1.051  1.00  0.00    -0.109 S 
ATOM     16  C   UNL     1      -1.664  -1.198  -0.417  1.00  0.00     0.065 A 
ATOM     17  C   UNL     1      -2.925   0.212   0.871  1.00  0.00     0.113 A 
ATOM     18  C   UNL     1      -2.985  -0.896   0.058  1.00  0.00     0.038 A 
ATOM     19  N   UNL     1      -4.057   0.709   1.491  1.00  0.00    -0.271 N 
ATOM     20  C   UNL     1      -4.295  -1.507  -0.155  1.00  0.00    -0.016 C 
ATOM     21  C   UNL     1      -4.258   1.763   2.336  1.00  0.00     0.231 A 
ATOM     22  C   UNL     1      -5.300   0.126   1.327  1.00  0.00     0.180 A 
ATOM     23  C   UNL     1      -5.398  -1.010   0.467  1.00  0.00     0.089 C 
ATOM     24  N   UNL     1      -5.525   1.830   2.675  1.00  0.00    -0.138 NA
ATOM     25  N   UNL     1      -6.183   0.800   2.040  1.00  0.00    -0.129 NA
ATOM     26  C   UNL     1      -4.338  -2.668  -1.110  1.00  0.00     0.047 C 
ATOM     27  Cl  UNL     1      -6.982  -1.682   0.274  1.00  0.00    -0.080 Cl
BRANCH  16  28
ATOM     28  N   UNL     1      -1.330  -2.235  -1.220  1.00  0.00    -0.397 N 
ATOM     29  H   UNL     1      -0.334  -2.411  -1.399  1.00  0.00     0.156 HD
ATOM     30  H   UNL     1      -1.851  -3.104  -1.225  1.00  0.00     0.156 HD
ENDBRANCH  16  28
ENDBRANCH   2  14
TORSDOF 4
