REMARK SMILES O=C(Nc1ccncc1Cl)C1CN(c2ccc(F)c(F)c2)C1
REMARK SMILES IDX 11 1 12 2 13 3 22 4 2 5 1 6 3 7 4 9 5 10 9 11 6 12 8 13 7 14
REMARK SMILES IDX 10 15 14 16 15 17 21 18 16 19 19 20 17 21 20 22 18 23
REMARK H PARENT 3 8
ROOT
ATOM      1  C   UNL     1       0.022  -0.174  -0.654  1.00  0.00     0.117 C 
ATOM      2  C   UNL     1      -1.060  -1.017   0.044  1.00  0.00     0.132 C 
ATOM      3  N   UNL     1      -1.963   0.069  -0.226  1.00  0.00    -0.370 N 
ATOM      4  C   UNL     1      -0.885   1.018  -0.301  1.00  0.00     0.132 C 
ENDROOT
BRANCH   1   5
ATOM      5  C   UNL     1       1.442  -0.190  -0.040  1.00  0.00     0.231 C 
ATOM      6  O   UNL     1       1.642  -0.084   1.171  1.00  0.00    -0.274 OA
ATOM      7  N   UNL     1       2.443  -0.334  -0.987  1.00  0.00    -0.324 N 
ATOM      8  H   UNL     1       2.158  -0.412  -1.959  1.00  0.00     0.169 HD
BRANCH   7   9
ATOM      9  C   UNL     1       3.845  -0.388  -0.780  1.00  0.00     0.063 A 
ATOM     10  C   UNL     1       4.442  -0.298   0.477  1.00  0.00     0.048 A 
ATOM     11  C   UNL     1       4.678  -0.540  -1.899  1.00  0.00     0.082 A 
ATOM     12  C   UNL     1       5.826  -0.362   0.566  1.00  0.00     0.113 A 
ATOM     13  C   UNL     1       6.051  -0.595  -1.708  1.00  0.00     0.133 A 
ATOM     14  N   UNL     1       6.646  -0.509  -0.497  1.00  0.00    -0.263 NA
ATOM     15  Cl  UNL     1       4.039  -0.661  -3.498  1.00  0.00    -0.080 Cl
ENDBRANCH   7   9
ENDBRANCH   1   5
BRANCH   3  16
ATOM     16  C   UNL     1      -3.234   0.277   0.347  1.00  0.00     0.040 A 
ATOM     17  C   UNL     1      -3.992  -0.804   0.829  1.00  0.00     0.029 A 
ATOM     18  C   UNL     1      -3.788   1.563   0.420  1.00  0.00     0.068 A 
ATOM     19  C   UNL     1      -5.260  -0.606   1.386  1.00  0.00     0.044 A 
ATOM     20  C   UNL     1      -5.050   1.756   0.975  1.00  0.00     0.160 A 
ATOM     21  C   UNL     1      -5.781   0.679   1.457  1.00  0.00     0.158 A 
ATOM     22  F   UNL     1      -5.557   2.995   1.037  1.00  0.00    -0.204 F 
ATOM     23  F   UNL     1      -6.996   0.868   1.989  1.00  0.00    -0.204 F 
ENDBRANCH   3  16
TORSDOF 3
