REMARK SMILES Cc1ccc(C(=O)NC2Cc3ccccc3C2)c(-c2sc3c(c(C)c(Cl)c4nnc(C)n43)c2N)n1
REMARK SMILES IDX 19 1 20 2 21 3 22 4 23 5 24 6 25 7 26 8 27 9 28 10 29 11
REMARK SMILES IDX 30 12 31 13 32 14 33 15 18 16 2 17 3 18 35 19 4 20 5 21 1 22
REMARK SMILES IDX 6 23 7 24 8 25 9 27 10 28 17 29 11 30 16 31 12 32 15 33
REMARK SMILES IDX 13 34 14 35 34 36
REMARK H PARENT 8 26 34 37 34 38
ROOT
ATOM      1  C   UNL     1      -1.452  -1.421   1.024  1.00  0.00     0.079 A 
ATOM      2  S   UNL     1      -0.458  -0.327   1.902  1.00  0.00    -0.113 S 
ATOM      3  C   UNL     1      -1.787   0.337   2.674  1.00  0.00     0.113 A 
ATOM      4  C   UNL     1      -2.997  -0.243   2.353  1.00  0.00     0.038 A 
ATOM      5  C   UNL     1      -4.199   0.300   2.972  1.00  0.00    -0.016 C 
ATOM      6  C   UNL     1      -5.508  -0.279   2.508  1.00  0.00     0.047 C 
ATOM      7  C   UNL     1      -4.110   1.306   3.879  1.00  0.00     0.089 C 
ATOM      8  Cl  UNL     1      -5.488   1.994   4.671  1.00  0.00    -0.080 Cl
ATOM      9  C   UNL     1      -2.843   1.866   4.226  1.00  0.00     0.181 A 
ATOM     10  N   UNL     1      -2.501   2.817   5.070  1.00  0.00    -0.129 NA
ATOM     11  N   UNL     1      -1.146   2.985   4.996  1.00  0.00    -0.135 NA
ATOM     12  C   UNL     1      -0.666   2.138   4.106  1.00  0.00     0.135 A 
ATOM     13  C   UNL     1       0.763   2.045   3.735  1.00  0.00     0.090 C 
ATOM     14  N   UNL     1      -1.705   1.379   3.593  1.00  0.00    -0.268 N 
ATOM     15  C   UNL     1      -2.780  -1.323   1.432  1.00  0.00     0.062 A 
ENDROOT
BRANCH   1  16
ATOM     16  C   UNL     1      -0.839  -2.357   0.068  1.00  0.00     0.095 A 
ATOM     17  C   UNL     1      -0.644  -4.624  -0.471  1.00  0.00     0.038 A 
ATOM     18  C   UNL     1       0.218  -4.340  -1.524  1.00  0.00     0.024 A 
ATOM     19  N   UNL     1      -1.174  -3.658   0.317  1.00  0.00    -0.251 NA
ATOM     20  C   UNL     1       0.543  -3.012  -1.784  1.00  0.00     0.018 A 
ATOM     21  C   UNL     1       0.010  -2.000  -0.978  1.00  0.00     0.067 A 
ATOM     22  C   UNL     1      -1.020  -6.043  -0.166  1.00  0.00     0.067 C 
BRANCH  21  23
ATOM     23  C   UNL     1       0.313  -0.594  -1.307  1.00  0.00     0.253 C 
ATOM     24  O   UNL     1      -0.588   0.213  -1.485  1.00  0.00    -0.269 OA
ATOM     25  N   UNL     1       1.655  -0.290  -1.406  1.00  0.00    -0.349 N 
ATOM     26  H   UNL     1       2.348  -1.015  -1.270  1.00  0.00     0.164 HD
BRANCH  25  27
ATOM     27  C   UNL     1       2.098   1.048  -1.770  1.00  0.00     0.091 C 
ATOM     28  C   UNL     1       1.883   1.366  -3.267  1.00  0.00     0.061 C 
ATOM     29  C   UNL     1       3.599   1.276  -1.485  1.00  0.00     0.061 C 
ATOM     30  C   UNL     1       2.989   2.339  -3.533  1.00  0.00    -0.043 A 
ATOM     31  C   UNL     1       3.957   2.290  -2.525  1.00  0.00    -0.043 A 
ATOM     32  C   UNL     1       3.134   3.182  -4.622  1.00  0.00     0.004 A 
ATOM     33  C   UNL     1       5.092   3.081  -2.585  1.00  0.00     0.004 A 
ATOM     34  C   UNL     1       4.269   3.992  -4.686  1.00  0.00     0.000 A 
ATOM     35  C   UNL     1       5.242   3.942  -3.675  1.00  0.00     0.000 A 
ENDBRANCH  25  27
ENDBRANCH  21  23
ENDBRANCH   1  16
BRANCH  15  36
ATOM     36  N   UNL     1      -3.725  -2.184   0.972  1.00  0.00    -0.397 N 
ATOM     37  H   UNL     1      -4.514  -2.422   1.562  1.00  0.00     0.156 HD
ATOM     38  H   UNL     1      -3.373  -3.033   0.519  1.00  0.00     0.156 HD
ENDBRANCH  15  36
TORSDOF 4
