REMARK SMILES O=C(NC1CN(c2cncc(F)c2)C1)c1ccc(F)c(F)c1
REMARK SMILES IDX 4 1 5 2 6 3 14 4 3 5 1 6 2 7 15 9 16 10 22 11 17 12 20 13
REMARK SMILES IDX 18 14 21 15 19 16 7 17 8 18 13 19 9 20 11 21 10 22 12 23
REMARK H PARENT 3 8
ROOT
ATOM      1  C   UNL     1       0.308   1.641   0.400  1.00  0.00     0.121 C 
ATOM      2  C   UNL     1       1.418   1.156   1.354  1.00  0.00     0.143 C 
ATOM      3  N   UNL     1       1.914   0.365   0.261  1.00  0.00    -0.366 N 
ATOM      4  C   UNL     1       1.276   1.207  -0.720  1.00  0.00     0.143 C 
ENDROOT
BRANCH   1   5
ATOM      5  N   UNL     1      -0.954   0.852   0.457  1.00  0.00    -0.346 N 
ATOM      6  O   UNL     1      -2.097   2.219  -0.984  1.00  0.00    -0.269 OA
ATOM      7  C   UNL     1      -2.052   1.206  -0.296  1.00  0.00     0.251 C 
ATOM      8  H   UNL     1      -0.984   0.018   1.028  1.00  0.00     0.164 HD
BRANCH   7   9
ATOM      9  C   UNL     1      -3.230   0.301  -0.228  1.00  0.00     0.042 A 
ATOM     10  C   UNL     1      -3.098  -1.083  -0.030  1.00  0.00     0.017 A 
ATOM     11  C   UNL     1      -4.502   0.863  -0.404  1.00  0.00     0.056 A 
ATOM     12  C   UNL     1      -4.237  -1.893   0.018  1.00  0.00     0.043 A 
ATOM     13  C   UNL     1      -5.626   0.046  -0.353  1.00  0.00     0.159 A 
ATOM     14  C   UNL     1      -5.496  -1.321  -0.141  1.00  0.00     0.158 A 
ATOM     15  F   UNL     1      -6.841   0.589  -0.511  1.00  0.00    -0.204 F 
ATOM     16  F   UNL     1      -6.582  -2.104  -0.093  1.00  0.00    -0.204 F 
ENDBRANCH   7   9
ENDBRANCH   1   5
BRANCH   3  17
ATOM     17  C   UNL     1       3.180  -0.241   0.159  1.00  0.00     0.058 A 
ATOM     18  C   UNL     1       3.929  -0.595   1.287  1.00  0.00     0.137 A 
ATOM     19  C   UNL     1       3.741  -0.551  -1.082  1.00  0.00     0.068 A 
ATOM     20  N   UNL     1       5.149  -1.192   1.259  1.00  0.00    -0.260 NA
ATOM     21  C   UNL     1       4.987  -1.162  -1.142  1.00  0.00     0.143 A 
ATOM     22  C   UNL     1       5.651  -1.460   0.033  1.00  0.00     0.150 A 
ATOM     23  F   UNL     1       5.534  -1.459  -2.328  1.00  0.00    -0.205 F 
ENDBRANCH   3  17
TORSDOF 3
