REMARK SMILES Cc1c(Cl)c2nnc(C)n2c2sc(NC3CN(C(=O)C4Cc5ccccc5C4)C3)c(N)c12
REMARK SMILES IDX 1 1 2 2 3 3 4 4 5 5 6 6 7 7 8 8 9 9 10 10 11 11 12 12 13 13
REMARK SMILES IDX 30 14 32 15 31 16 14 19 15 21 16 22 29 23 17 24 18 25 19 26
REMARK SMILES IDX 20 27 21 28 28 29 22 30 27 31 23 32 26 33 24 34 25 35
REMARK H PARENT 31 17 31 18 14 20
ROOT
ATOM      1  C   UNL     1      -4.988  -2.815  -0.566  1.00  0.00     0.047 C 
ATOM      2  C   UNL     1      -4.909  -1.429   0.016  1.00  0.00    -0.016 C 
ATOM      3  C   UNL     1      -5.840  -0.922   0.862  1.00  0.00     0.089 C 
ATOM      4  Cl  UNL     1      -7.278  -1.784   1.319  1.00  0.00    -0.080 Cl
ATOM      5  C   UNL     1      -5.678   0.376   1.433  1.00  0.00     0.181 A 
ATOM      6  N   UNL     1      -6.439   1.078   2.252  1.00  0.00    -0.129 NA
ATOM      7  N   UNL     1      -5.801   2.259   2.514  1.00  0.00    -0.135 NA
ATOM      8  C   UNL     1      -4.663   2.282   1.844  1.00  0.00     0.135 A 
ATOM      9  C   UNL     1      -3.701   3.405   1.886  1.00  0.00     0.090 C 
ATOM     10  N   UNL     1      -4.534   1.105   1.124  1.00  0.00    -0.268 N 
ATOM     11  C   UNL     1      -3.579   0.598   0.248  1.00  0.00     0.114 A 
ATOM     12  S   UNL     1      -2.194   1.430  -0.206  1.00  0.00    -0.097 S 
ATOM     13  C   UNL     1      -1.677   0.133  -1.199  1.00  0.00     0.115 A 
ATOM     14  C   UNL     1      -2.626  -0.888  -1.225  1.00  0.00     0.076 A 
ATOM     15  C   UNL     1      -3.728  -0.645  -0.336  1.00  0.00     0.040 A 
ENDROOT
BRANCH  14  16
ATOM     16  N   UNL     1      -2.483  -1.952  -2.057  1.00  0.00    -0.396 N 
ATOM     17  H   UNL     1      -3.296  -2.444  -2.415  1.00  0.00     0.156 HD
ATOM     18  H   UNL     1      -1.784  -1.857  -2.797  1.00  0.00     0.156 HD
ENDBRANCH  14  16
BRANCH  13  19
ATOM     19  N   UNL     1      -0.496   0.223  -1.883  1.00  0.00    -0.369 N 
ATOM     20  H   UNL     1      -0.084   1.160  -1.876  1.00  0.00     0.161 HD
BRANCH  19  21
ATOM     21  C   UNL     1       0.529  -0.795  -1.756  1.00  0.00     0.119 C 
ATOM     22  C   UNL     1       1.711  -0.363  -0.861  1.00  0.00     0.146 C 
ATOM     23  C   UNL     1       1.507  -0.812  -2.944  1.00  0.00     0.146 C 
ATOM     24  N   UNL     1       2.580  -0.754  -1.960  1.00  0.00    -0.338 N 
ATOM     25  C   UNL     1       3.921  -0.739  -2.203  1.00  0.00     0.226 C 
ATOM     26  O   UNL     1       4.358  -0.967  -3.337  1.00  0.00    -0.275 OA
BRANCH  25  27
ATOM     27  C   UNL     1       4.890  -0.402  -1.075  1.00  0.00     0.087 C 
ATOM     28  C   UNL     1       4.730  -1.279   0.181  1.00  0.00     0.049 C 
ATOM     29  C   UNL     1       4.811   1.080  -0.665  1.00  0.00     0.049 C 
ATOM     30  C   UNL     1       4.389  -0.291   1.251  1.00  0.00    -0.044 A 
ATOM     31  C   UNL     1       4.418   1.021   0.777  1.00  0.00    -0.044 A 
ATOM     32  C   UNL     1       4.079  -0.561   2.579  1.00  0.00     0.004 A 
ATOM     33  C   UNL     1       4.130   2.090   1.613  1.00  0.00     0.004 A 
ATOM     34  C   UNL     1       3.796   0.509   3.429  1.00  0.00     0.000 A 
ATOM     35  C   UNL     1       3.822   1.826   2.947  1.00  0.00     0.000 A 
ENDBRANCH  25  27
ENDBRANCH  19  21
ENDBRANCH  13  19
TORSDOF 4
