REMARK SMILES Cc1ccc(NC(=O)c2sc3c(c(C)c(Cl)c4nncn43)c2N)c(-c2cc(F)nc(F)c2)n1
REMARK SMILES IDX 6 1 7 2 8 3 5 5 2 6 3 7 33 8 4 9 24 10 1 11 25 12 26 13
REMARK SMILES IDX 32 14 27 15 30 16 29 17 28 18 31 19 9 20 10 21 22 22 11 23
REMARK SMILES IDX 12 24 21 25 13 26 20 27 17 28 15 29 19 30 18 31 14 32 16 33
REMARK SMILES IDX 23 34
REMARK H PARENT 6 4 23 35 23 36
ROOT
ATOM      1  N   UNL     1      -0.746  -1.199   0.697  1.00  0.00    -0.319 N 
ATOM      2  C   UNL     1      -0.278   0.102   0.574  1.00  0.00     0.268 C 
ATOM      3  O   UNL     1      -1.015   1.085   0.575  1.00  0.00    -0.268 OA
ATOM      4  H   UNL     1      -0.054  -1.867   1.015  1.00  0.00     0.170 HD
ENDROOT
BRANCH   1   5
ATOM      5  C   UNL     1      -2.100  -1.608   0.758  1.00  0.00     0.068 A 
ATOM      6  C   UNL     1      -4.692  -2.523   1.086  1.00  0.00     0.038 A 
ATOM      7  C   UNL     1      -3.658  -3.206   1.705  1.00  0.00     0.026 A 
ATOM      8  N   UNL     1      -4.474  -1.451   0.292  1.00  0.00    -0.251 NA
ATOM      9  C   UNL     1      -2.355  -2.747   1.531  1.00  0.00     0.030 A 
ATOM     10  C   UNL     1      -3.196  -1.009   0.109  1.00  0.00     0.094 A 
ATOM     11  C   UNL     1      -6.111  -2.974   1.260  1.00  0.00     0.067 C 
BRANCH  10  12
ATOM     12  C   UNL     1      -3.120   0.024  -0.935  1.00  0.00     0.011 A 
ATOM     13  C   UNL     1      -3.893   1.186  -0.849  1.00  0.00     0.071 A 
ATOM     14  C   UNL     1      -2.315  -0.133  -2.069  1.00  0.00     0.071 A 
ATOM     15  C   UNL     1      -3.797   2.130  -1.856  1.00  0.00     0.216 A 
ATOM     16  C   UNL     1      -2.296   0.875  -3.018  1.00  0.00     0.216 A 
ATOM     17  N   UNL     1      -3.013   2.009  -2.942  1.00  0.00    -0.191 NA
ATOM     18  F   UNL     1      -4.535   3.245  -1.752  1.00  0.00    -0.185 F 
ATOM     19  F   UNL     1      -1.509   0.714  -4.091  1.00  0.00    -0.185 F 
ENDBRANCH  10  12
ENDBRANCH   1   5
BRANCH   2  20
ATOM     20  C   UNL     1       1.181   0.234   0.497  1.00  0.00     0.118 A 
ATOM     21  S   UNL     1       2.199  -1.150   0.366  1.00  0.00    -0.109 S 
ATOM     22  C   UNL     1       1.928   1.412   0.478  1.00  0.00     0.065 A 
ATOM     23  C   UNL     1       3.560  -0.181   0.300  1.00  0.00     0.113 A 
ATOM     24  C   UNL     1       3.341   1.174   0.385  1.00  0.00     0.038 A 
ATOM     25  N   UNL     1       4.839  -0.693   0.172  1.00  0.00    -0.271 N 
ATOM     26  C   UNL     1       4.509   2.051   0.371  1.00  0.00    -0.016 C 
ATOM     27  C   UNL     1       5.314  -1.968   0.060  1.00  0.00     0.231 A 
ATOM     28  C   UNL     1       5.956   0.122   0.131  1.00  0.00     0.180 A 
ATOM     29  C   UNL     1       5.760   1.532   0.241  1.00  0.00     0.089 C 
ATOM     30  N   UNL     1       6.623  -1.951  -0.044  1.00  0.00    -0.138 NA
ATOM     31  N   UNL     1       7.029  -0.636  -0.000  1.00  0.00    -0.129 NA
ATOM     32  C   UNL     1       4.238   3.520   0.539  1.00  0.00     0.047 C 
ATOM     33  Cl  UNL     1       7.194   2.502   0.208  1.00  0.00    -0.080 Cl
BRANCH  22  34
ATOM     34  N   UNL     1       1.333   2.626   0.549  1.00  0.00    -0.397 N 
ATOM     35  H   UNL     1       0.308   2.671   0.500  1.00  0.00     0.156 HD
ATOM     36  H   UNL     1       1.740   3.449   0.120  1.00  0.00     0.156 HD
ENDBRANCH  22  34
ENDBRANCH   2  20
TORSDOF 4
