REMARK SMILES Cc1c(Cl)c2nncn2c2sc(C(=O)Nc3cncc(C4CC4)c3)c(N)c12
REMARK SMILES IDX 1 1 2 2 3 3 4 4 5 5 6 6 7 7 8 8 9 9 10 10 11 11 12 12 25 13
REMARK SMILES IDX 27 14 26 15 13 18 14 19 15 20 16 22 17 23 24 24 18 25 20 26
REMARK SMILES IDX 19 27 21 28 22 29 23 30
REMARK H PARENT 26 16 26 17 15 21
ROOT
ATOM      1  C   UNL     1      -4.703  -2.141   1.664  1.00  0.00     0.047 C 
ATOM      2  C   UNL     1      -4.747  -0.991   0.696  1.00  0.00    -0.016 C 
ATOM      3  C   UNL     1      -5.902  -0.499   0.172  1.00  0.00     0.089 C 
ATOM      4  Cl  UNL     1      -7.469  -1.103   0.592  1.00  0.00    -0.080 Cl
ATOM      5  C   UNL     1      -5.875   0.564  -0.780  1.00  0.00     0.180 A 
ATOM      6  N   UNL     1      -6.816   1.219  -1.432  1.00  0.00    -0.129 NA
ATOM      7  N   UNL     1      -6.208   2.148  -2.247  1.00  0.00    -0.138 NA
ATOM      8  C   UNL     1      -4.910   2.040  -2.075  1.00  0.00     0.231 A 
ATOM      9  N   UNL     1      -4.641   1.062  -1.161  1.00  0.00    -0.271 N 
ATOM     10  C   UNL     1      -3.458   0.576  -0.634  1.00  0.00     0.113 A 
ATOM     11  S   UNL     1      -1.959   1.158  -1.088  1.00  0.00    -0.109 S 
ATOM     12  C   UNL     1      -1.172   0.076   0.000  1.00  0.00     0.118 A 
ATOM     13  C   UNL     1      -2.101  -0.703   0.692  1.00  0.00     0.065 A 
ATOM     14  C   UNL     1      -3.457  -0.430   0.305  1.00  0.00     0.038 A 
ENDROOT
BRANCH  13  15
ATOM     15  N   UNL     1      -1.709  -1.613   1.614  1.00  0.00    -0.397 N 
ATOM     16  H   UNL     1      -2.297  -1.874   2.397  1.00  0.00     0.156 HD
ATOM     17  H   UNL     1      -0.719  -1.635   1.885  1.00  0.00     0.156 HD
ENDBRANCH  13  15
BRANCH  12  18
ATOM     18  C   UNL     1       0.290   0.065   0.143  1.00  0.00     0.267 C 
ATOM     19  O   UNL     1       0.841  -0.601   1.017  1.00  0.00    -0.268 OA
ATOM     20  N   UNL     1       0.971   0.853  -0.773  1.00  0.00    -0.320 N 
ATOM     21  H   UNL     1       0.391   1.343  -1.442  1.00  0.00     0.170 HD
BRANCH  20  22
ATOM     22  C   UNL     1       2.364   1.049  -0.891  1.00  0.00     0.060 A 
ATOM     23  C   UNL     1       2.830   1.889  -1.900  1.00  0.00     0.137 A 
ATOM     24  C   UNL     1       3.325   0.465  -0.066  1.00  0.00     0.033 A 
ATOM     25  N   UNL     1       4.132   2.171  -2.127  1.00  0.00    -0.262 NA
ATOM     26  C   UNL     1       4.696   0.709  -0.258  1.00  0.00    -0.024 A 
ATOM     27  C   UNL     1       5.023   1.577  -1.300  1.00  0.00     0.115 A 
BRANCH  26  28
ATOM     28  C   UNL     1       5.747   0.099   0.635  1.00  0.00     0.021 C 
ATOM     29  C   UNL     1       6.863  -0.727   0.036  1.00  0.00     0.009 C 
ATOM     30  C   UNL     1       5.792  -1.398   0.840  1.00  0.00     0.009 C 
ENDBRANCH  26  28
ENDBRANCH  20  22
ENDBRANCH  12  18
TORSDOF 4
