REMARK SMILES Cc1c(Cl)c2nncn2c2sc(-c3ccc4cc(NC(=O)C5Cc6ccccc6C5)nnc4c3)c(N)c12
REMARK SMILES IDX 1 1 2 2 3 3 4 4 5 5 6 6 7 7 8 8 9 9 10 10 11 11 12 12 35 13
REMARK SMILES IDX 37 14 36 15 13 18 14 19 34 20 15 21 33 22 16 23 32 24 17 25
REMARK SMILES IDX 31 26 18 27 19 28 20 29 21 30 22 32 23 33 30 34 24 35 29 36
REMARK SMILES IDX 25 37 28 38 26 39 27 40
REMARK H PARENT 36 16 36 17 19 31
ROOT
ATOM      1  C   UNL     1      -6.617  -3.000   1.808  1.00  0.00     0.047 C 
ATOM      2  C   UNL     1      -6.986  -1.583   1.469  1.00  0.00    -0.016 C 
ATOM      3  C   UNL     1      -8.216  -1.054   1.714  1.00  0.00     0.089 C 
ATOM      4  Cl  UNL     1      -9.524  -1.963   2.393  1.00  0.00    -0.080 Cl
ATOM      5  C   UNL     1      -8.492   0.316   1.422  1.00  0.00     0.180 A 
ATOM      6  N   UNL     1      -9.567   1.070   1.550  1.00  0.00    -0.129 NA
ATOM      7  N   UNL     1      -9.254   2.341   1.121  1.00  0.00    -0.138 NA
ATOM      8  C   UNL     1      -7.997   2.335   0.741  1.00  0.00     0.231 A 
ATOM      9  N   UNL     1      -7.467   1.087   0.902  1.00  0.00    -0.271 N 
ATOM     10  C   UNL     1      -6.215   0.563   0.641  1.00  0.00     0.112 A 
ATOM     11  S   UNL     1      -4.967   1.483   0.015  1.00  0.00    -0.114 S 
ATOM     12  C   UNL     1      -3.924   0.112   0.014  1.00  0.00     0.060 A 
ATOM     13  C   UNL     1      -4.575  -1.029   0.479  1.00  0.00     0.060 A 
ATOM     14  C   UNL     1      -5.928  -0.762   0.886  1.00  0.00     0.038 A 
ENDROOT
BRANCH  13  15
ATOM     15  N   UNL     1      -3.955  -2.233   0.519  1.00  0.00    -0.397 N 
ATOM     16  H   UNL     1      -4.479  -3.101   0.516  1.00  0.00     0.156 HD
ATOM     17  H   UNL     1      -3.060  -2.356   0.049  1.00  0.00     0.156 HD
ENDBRANCH  13  15
BRANCH  12  18
ATOM     18  C   UNL     1      -2.538   0.286  -0.437  1.00  0.00    -0.004 A 
ATOM     19  C   UNL     1      -2.249   0.709  -1.738  1.00  0.00     0.010 A 
ATOM     20  C   UNL     1      -1.477   0.012   0.438  1.00  0.00     0.040 A 
ATOM     21  C   UNL     1      -0.923   0.859  -2.147  1.00  0.00     0.011 A 
ATOM     22  C   UNL     1      -0.150   0.154   0.046  1.00  0.00     0.094 A 
ATOM     23  C   UNL     1       0.131   0.583  -1.260  1.00  0.00     0.006 A 
ATOM     24  N   UNL     1       0.849  -0.115   0.897  1.00  0.00    -0.148 NA
ATOM     25  C   UNL     1       1.471   0.724  -1.647  1.00  0.00     0.059 A 
ATOM     26  N   UNL     1       2.163   0.026   0.507  1.00  0.00    -0.132 NA
ATOM     27  C   UNL     1       2.472   0.437  -0.738  1.00  0.00     0.155 A 
BRANCH  27  28
ATOM     28  N   UNL     1       3.842   0.538  -0.997  1.00  0.00    -0.309 N 
ATOM     29  C   UNL     1       4.461   0.921  -2.162  1.00  0.00     0.229 C 
ATOM     30  O   UNL     1       3.880   1.240  -3.198  1.00  0.00    -0.274 OA
ATOM     31  H   UNL     1       4.404   0.286  -0.192  1.00  0.00     0.171 HD
BRANCH  29  32
ATOM     32  C   UNL     1       5.990   0.934  -2.120  1.00  0.00     0.087 C 
ATOM     33  C   UNL     1       6.575  -0.459  -1.824  1.00  0.00     0.049 C 
ATOM     34  C   UNL     1       6.536   1.906  -1.058  1.00  0.00     0.049 C 
ATOM     35  C   UNL     1       6.933  -0.351  -0.374  1.00  0.00    -0.044 A 
ATOM     36  C   UNL     1       6.910   0.979   0.057  1.00  0.00    -0.044 A 
ATOM     37  C   UNL     1       7.273  -1.376   0.492  1.00  0.00     0.004 A 
ATOM     38  C   UNL     1       7.227   1.312   1.363  1.00  0.00     0.004 A 
ATOM     39  C   UNL     1       7.584  -1.051   1.814  1.00  0.00     0.000 A 
ATOM     40  C   UNL     1       7.561   0.284   2.246  1.00  0.00     0.000 A 
ENDBRANCH  29  32
ENDBRANCH  27  28
ENDBRANCH  12  18
TORSDOF 4
