REMARK SMILES Cc1ccc(-c2sc3c(c(C)c(Cl)c4nncn43)c2N)c(C(=O)NC2Cc3ccccc3C2)n1
REMARK SMILES IDX 6 1 7 2 8 3 9 4 10 5 11 6 12 7 13 8 14 9 15 10 16 11 17 12
REMARK SMILES IDX 18 13 19 14 5 15 2 16 3 17 34 18 4 19 21 20 1 21 22 22 23 23
REMARK SMILES IDX 24 24 25 26 26 27 33 28 27 29 32 30 28 31 31 32 29 33 30 34
REMARK SMILES IDX 20 35
REMARK H PARENT 24 25 20 36 20 37
ROOT
ATOM      1  C   UNL     1       2.127  -0.853   1.205  1.00  0.00     0.062 A 
ATOM      2  S   UNL     1       2.185   0.327   2.454  1.00  0.00    -0.114 S 
ATOM      3  C   UNL     1       3.481   1.078   1.707  1.00  0.00     0.112 A 
ATOM      4  C   UNL     1       3.942   0.486   0.553  1.00  0.00     0.038 A 
ATOM      5  C   UNL     1       5.105   1.087  -0.095  1.00  0.00    -0.016 C 
ATOM      6  C   UNL     1       5.635   0.368  -1.305  1.00  0.00     0.047 C 
ATOM      7  C   UNL     1       5.673   2.214   0.413  1.00  0.00     0.089 C 
ATOM      8  Cl  UNL     1       7.047   2.990  -0.300  1.00  0.00    -0.080 Cl
ATOM      9  C   UNL     1       5.154   2.822   1.597  1.00  0.00     0.180 A 
ATOM     10  N   UNL     1       5.504   3.886   2.295  1.00  0.00    -0.129 NA
ATOM     11  N   UNL     1       4.651   3.993   3.370  1.00  0.00    -0.138 NA
ATOM     12  C   UNL     1       3.799   2.994   3.304  1.00  0.00     0.231 A 
ATOM     13  N   UNL     1       4.070   2.222   2.211  1.00  0.00    -0.271 N 
ATOM     14  C   UNL     1       3.114  -0.647   0.245  1.00  0.00     0.060 A 
ENDROOT
BRANCH   1  15
ATOM     15  C   UNL     1       1.101  -1.891   1.285  1.00  0.00     0.025 A 
ATOM     16  C   UNL     1      -0.788  -3.918   1.469  1.00  0.00     0.038 A 
ATOM     17  C   UNL     1       0.437  -4.076   2.105  1.00  0.00     0.024 A 
ATOM     18  N   UNL     1      -1.096  -2.812   0.756  1.00  0.00    -0.247 NA
ATOM     19  C   UNL     1       1.384  -3.058   2.008  1.00  0.00     0.014 A 
ATOM     20  C   UNL     1      -0.151  -1.817   0.672  1.00  0.00     0.137 A 
ATOM     21  C   UNL     1      -1.827  -4.996   1.557  1.00  0.00     0.067 C 
BRANCH  20  22
ATOM     22  C   UNL     1      -0.603  -0.633  -0.154  1.00  0.00     0.270 C 
ATOM     23  O   UNL     1       0.061   0.382  -0.315  1.00  0.00    -0.267 OA
ATOM     24  N   UNL     1      -1.859  -0.797  -0.710  1.00  0.00    -0.347 N 
ATOM     25  H   UNL     1      -2.370  -1.614  -0.382  1.00  0.00     0.164 HD
BRANCH  24  26
ATOM     26  C   UNL     1      -2.560   0.288  -1.371  1.00  0.00     0.091 C 
ATOM     27  C   UNL     1      -3.759  -0.203  -2.210  1.00  0.00     0.061 C 
ATOM     28  C   UNL     1      -3.120   1.334  -0.379  1.00  0.00     0.061 C 
ATOM     29  C   UNL     1      -4.670   0.984  -2.162  1.00  0.00    -0.043 A 
ATOM     30  C   UNL     1      -4.309   1.852  -1.127  1.00  0.00    -0.043 A 
ATOM     31  C   UNL     1      -5.769   1.245  -2.963  1.00  0.00     0.004 A 
ATOM     32  C   UNL     1      -5.039   3.000  -0.870  1.00  0.00     0.004 A 
ATOM     33  C   UNL     1      -6.504   2.407  -2.719  1.00  0.00     0.000 A 
ATOM     34  C   UNL     1      -6.142   3.279  -1.680  1.00  0.00     0.000 A 
ENDBRANCH  24  26
ENDBRANCH  20  22
ENDBRANCH   1  15
BRANCH  14  35
ATOM     35  N   UNL     1       3.234  -1.453  -0.841  1.00  0.00    -0.397 N 
ATOM     36  H   UNL     1       3.600  -1.064  -1.704  1.00  0.00     0.156 HD
ATOM     37  H   UNL     1       2.475  -2.094  -1.062  1.00  0.00     0.156 HD
ENDBRANCH  14  35
TORSDOF 4
