REMARK SMILES O=C(NC1CN(c2cncc(F)c2)C1)C1Cc2ccccc2C1
REMARK SMILES IDX 4 1 5 2 6 3 14 4 3 5 1 6 2 7 15 9 16 10 23 11 17 12 22 13
REMARK SMILES IDX 18 14 21 15 19 16 20 17 7 18 8 19 13 20 9 21 11 22 10 23
REMARK SMILES IDX 12 24
REMARK H PARENT 3 8
ROOT
ATOM      1  C   UNL     1       1.605   0.451   1.553  1.00  0.00     0.120 C 
ATOM      2  C   UNL     1       2.490  -0.793   1.335  1.00  0.00     0.143 C 
ATOM      3  N   UNL     1       3.074  -0.087   0.222  1.00  0.00    -0.366 N 
ATOM      4  C   UNL     1       2.696   1.194   0.755  1.00  0.00     0.143 C 
ENDROOT
BRANCH   1   5
ATOM      5  N   UNL     1       0.279   0.387   0.877  1.00  0.00    -0.350 N 
ATOM      6  O   UNL     1      -0.729  -0.727   2.601  1.00  0.00    -0.275 OA
ATOM      7  C   UNL     1      -0.792  -0.248   1.473  1.00  0.00     0.224 C 
ATOM      8  H   UNL     1       0.243   0.525  -0.127  1.00  0.00     0.163 HD
BRANCH   7   9
ATOM      9  C   UNL     1      -2.021  -0.337   0.590  1.00  0.00     0.087 C 
ATOM     10  C   UNL     1      -2.527   1.053   0.156  1.00  0.00     0.049 C 
ATOM     11  C   UNL     1      -3.209  -1.028   1.288  1.00  0.00     0.049 C 
ATOM     12  C   UNL     1      -3.986   0.792  -0.044  1.00  0.00    -0.044 A 
ATOM     13  C   UNL     1      -4.373  -0.389   0.595  1.00  0.00    -0.044 A 
ATOM     14  C   UNL     1      -4.909   1.577  -0.714  1.00  0.00     0.004 A 
ATOM     15  C   UNL     1      -5.690  -0.813   0.578  1.00  0.00     0.004 A 
ATOM     16  C   UNL     1      -6.239   1.151  -0.748  1.00  0.00     0.000 A 
ATOM     17  C   UNL     1      -6.627  -0.035  -0.107  1.00  0.00     0.000 A 
ENDBRANCH   7   9
ENDBRANCH   1   5
BRANCH   3  18
ATOM     18  C   UNL     1       4.271  -0.409  -0.445  1.00  0.00     0.058 A 
ATOM     19  C   UNL     1       4.777  -1.714  -0.480  1.00  0.00     0.137 A 
ATOM     20  C   UNL     1       5.003   0.559  -1.137  1.00  0.00     0.068 A 
ATOM     21  N   UNL     1       5.918  -2.094  -1.111  1.00  0.00    -0.260 NA
ATOM     22  C   UNL     1       6.173   0.200  -1.794  1.00  0.00     0.143 A 
ATOM     23  C   UNL     1       6.593  -1.117  -1.757  1.00  0.00     0.150 A 
ATOM     24  F   UNL     1       6.882   1.123  -2.456  1.00  0.00    -0.205 F 
ENDBRANCH   3  18
TORSDOF 3
