REMARK SMILES Cc1ccc(C(=O)Nc2sc3c(c(C)c(Cl)c4nncn43)c2N)c(C2CC2)n1
REMARK SMILES IDX 9 1 10 2 11 3 12 4 13 5 14 6 15 7 16 8 17 9 18 10 19 11
REMARK SMILES IDX 20 12 21 13 22 14 8 15 6 16 7 17 5 19 2 20 3 21 28 22 4 23
REMARK SMILES IDX 24 24 1 25 25 26 26 27 27 28 23 29
REMARK H PARENT 8 18 23 30 23 31
ROOT
ATOM      1  C   UNL     1       1.083   0.228   0.272  1.00  0.00     0.121 A 
ATOM      2  S   UNL     1       1.859  -0.259   1.716  1.00  0.00    -0.097 S 
ATOM      3  C   UNL     1       3.314  -0.408   0.905  1.00  0.00     0.114 A 
ATOM      4  C   UNL     1       3.282  -0.138  -0.445  1.00  0.00     0.040 A 
ATOM      5  C   UNL     1       4.524  -0.305  -1.196  1.00  0.00    -0.016 C 
ATOM      6  C   UNL     1       4.437  -0.084  -2.681  1.00  0.00     0.047 C 
ATOM      7  C   UNL     1       5.671  -0.672  -0.562  1.00  0.00     0.089 C 
ATOM      8  Cl  UNL     1       7.184  -0.881  -1.377  1.00  0.00    -0.080 Cl
ATOM      9  C   UNL     1       5.679  -0.916   0.846  1.00  0.00     0.180 A 
ATOM     10  N   UNL     1       6.623  -1.272   1.697  1.00  0.00    -0.129 NA
ATOM     11  N   UNL     1       6.055  -1.381   2.947  1.00  0.00    -0.138 NA
ATOM     12  C   UNL     1       4.779  -1.089   2.832  1.00  0.00     0.231 A 
ATOM     13  N   UNL     1       4.486  -0.785   1.533  1.00  0.00    -0.271 N 
ATOM     14  C   UNL     1       1.948   0.257  -0.815  1.00  0.00     0.077 A 
ENDROOT
BRANCH   1  15
ATOM     15  N   UNL     1      -0.255   0.493   0.482  1.00  0.00    -0.312 N 
ATOM     16  C   UNL     1      -1.129   1.007  -0.449  1.00  0.00     0.258 C 
ATOM     17  O   UNL     1      -0.865   1.423  -1.572  1.00  0.00    -0.269 OA
ATOM     18  H   UNL     1      -0.584   0.321   1.424  1.00  0.00     0.171 HD
BRANCH  16  19
ATOM     19  C   UNL     1      -2.525   1.124   0.023  1.00  0.00     0.062 A 
ATOM     20  C   UNL     1      -5.094   1.418   0.915  1.00  0.00     0.038 A 
ATOM     21  C   UNL     1      -4.444   2.527   0.391  1.00  0.00     0.024 A 
ATOM     22  N   UNL     1      -4.511   0.196   0.987  1.00  0.00    -0.257 NA
ATOM     23  C   UNL     1      -3.140   2.377  -0.062  1.00  0.00     0.017 A 
ATOM     24  C   UNL     1      -3.240   0.029   0.522  1.00  0.00     0.056 A 
ATOM     25  C   UNL     1      -6.501   1.538   1.421  1.00  0.00     0.067 C 
BRANCH  24  26
ATOM     26  C   UNL     1      -2.680  -1.379   0.578  1.00  0.00     0.039 C 
ATOM     27  C   UNL     1      -3.489  -2.524   0.009  1.00  0.00     0.011 C 
ATOM     28  C   UNL     1      -2.237  -2.084  -0.684  1.00  0.00     0.011 C 
ENDBRANCH  24  26
ENDBRANCH  16  19
ENDBRANCH   1  15
BRANCH  14  29
ATOM     29  N   UNL     1       1.555   0.599  -2.063  1.00  0.00    -0.396 N 
ATOM     30  H   UNL     1       0.607   0.988  -2.167  1.00  0.00     0.156 HD
ATOM     31  H   UNL     1       2.181   1.092  -2.688  1.00  0.00     0.156 HD
ENDBRANCH  14  29
TORSDOF 4
