REMARK SMILES Cc1ccc(NC(=O)c2sc3c(c(C)c(Cl)c4nncn43)c2N)c(C2(F)CCCC2)n1
REMARK SMILES IDX 6 1 7 2 8 3 5 5 2 6 3 7 31 8 4 9 24 10 1 11 25 12 27 13
REMARK SMILES IDX 30 14 28 15 29 16 26 17 9 18 10 19 22 20 11 21 12 22 21 23
REMARK SMILES IDX 13 24 20 25 17 26 15 27 19 28 18 29 14 30 16 31 23 32
REMARK H PARENT 6 4 23 33 23 34
ROOT
ATOM      1  N   UNL     1      -0.434  -0.069   1.157  1.00  0.00    -0.319 N 
ATOM      2  C   UNL     1       0.840  -0.113   1.703  1.00  0.00     0.268 C 
ATOM      3  O   UNL     1       1.066  -0.221   2.907  1.00  0.00    -0.268 OA
ATOM      4  H   UNL     1      -0.471   0.011   0.143  1.00  0.00     0.170 HD
ENDROOT
BRANCH   1   5
ATOM      5  C   UNL     1      -1.688  -0.130   1.811  1.00  0.00     0.066 A 
ATOM      6  C   UNL     1      -4.194  -0.240   2.997  1.00  0.00     0.038 A 
ATOM      7  C   UNL     1      -3.067  -0.297   3.798  1.00  0.00     0.025 A 
ATOM      8  N   UNL     1      -4.116  -0.132   1.654  1.00  0.00    -0.253 NA
ATOM      9  C   UNL     1      -1.810  -0.241   3.197  1.00  0.00     0.030 A 
ATOM     10  C   UNL     1      -2.882  -0.078   1.065  1.00  0.00     0.101 A 
ATOM     11  C   UNL     1      -5.562  -0.297   3.608  1.00  0.00     0.067 C 
BRANCH  10  12
ATOM     12  C   UNL     1      -2.896   0.042  -0.449  1.00  0.00     0.154 C 
ATOM     13  C   UNL     1      -3.649  -1.094  -1.143  1.00  0.00     0.048 C 
ATOM     14  C   UNL     1      -3.639   1.281  -0.952  1.00  0.00     0.048 C 
ATOM     15  C   UNL     1      -3.925  -0.552  -2.544  1.00  0.00     0.004 C 
ATOM     16  C   UNL     1      -3.921   0.972  -2.420  1.00  0.00     0.004 C 
ATOM     17  F   UNL     1      -1.639   0.081  -1.008  1.00  0.00    -0.237 F 
ENDBRANCH  10  12
ENDBRANCH   1   5
BRANCH   2  18
ATOM     18  C   UNL     1       1.939  -0.022   0.731  1.00  0.00     0.118 A 
ATOM     19  S   UNL     1       1.645   0.359  -0.923  1.00  0.00    -0.109 S 
ATOM     20  C   UNL     1       3.304  -0.180   0.974  1.00  0.00     0.065 A 
ATOM     21  C   UNL     1       3.279   0.290  -1.265  1.00  0.00     0.113 A 
ATOM     22  C   UNL     1       4.103  -0.022  -0.209  1.00  0.00     0.038 A 
ATOM     23  N   UNL     1       3.790   0.528  -2.528  1.00  0.00    -0.271 N 
ATOM     24  C   UNL     1       5.535  -0.129  -0.478  1.00  0.00    -0.016 C 
ATOM     25  C   UNL     1       3.199   0.858  -3.714  1.00  0.00     0.231 A 
ATOM     26  C   UNL     1       5.145   0.461  -2.796  1.00  0.00     0.180 A 
ATOM     27  C   UNL     1       6.023   0.112  -1.725  1.00  0.00     0.089 C 
ATOM     28  N   UNL     1       4.114   0.994  -4.647  1.00  0.00    -0.138 NA
ATOM     29  N   UNL     1       5.340   0.744  -4.071  1.00  0.00    -0.129 NA
ATOM     30  C   UNL     1       6.397  -0.550   0.680  1.00  0.00     0.047 C 
ATOM     31  Cl  UNL     1       7.705   0.016  -2.123  1.00  0.00    -0.080 Cl
BRANCH  20  32
ATOM     32  N   UNL     1       3.773  -0.463   2.212  1.00  0.00    -0.397 N 
ATOM     33  H   UNL     1       4.693  -0.167   2.516  1.00  0.00     0.156 HD
ATOM     34  H   UNL     1       3.110  -0.434   2.996  1.00  0.00     0.156 HD
ENDBRANCH  20  32
ENDBRANCH   2  18
TORSDOF 4
