REMARK SMILES Cc1ccc(C2(F)CCCC2)c(NC(=O)c2sc3c(c(C)c(Cl)c4nncn43)c2N)n1
REMARK SMILES IDX 13 1 14 2 15 3 12 5 2 6 3 7 31 8 4 9 5 10 1 11 6 12 8 13
REMARK SMILES IDX 11 14 9 15 10 16 7 17 16 18 17 19 29 20 18 21 19 22 28 23
REMARK SMILES IDX 20 24 27 25 24 26 22 27 26 28 25 29 21 30 23 31 30 32
REMARK H PARENT 13 4 30 33 30 34
ROOT
ATOM      1  N   UNL     1      -0.630  -0.426   1.109  1.00  0.00    -0.305 N 
ATOM      2  C   UNL     1      -0.007  -0.597  -0.115  1.00  0.00     0.269 C 
ATOM      3  O   UNL     1      -0.603  -0.947  -1.132  1.00  0.00    -0.268 OA
ATOM      4  H   UNL     1      -0.023  -0.597   1.900  1.00  0.00     0.171 HD
ENDROOT
BRANCH   1   5
ATOM      5  C   UNL     1      -1.934  -0.851   1.375  1.00  0.00     0.139 A 
ATOM      6  C   UNL     1      -3.100  -2.272   2.804  1.00  0.00     0.040 A 
ATOM      7  C   UNL     1      -4.257  -2.117   2.064  1.00  0.00     0.024 A 
ATOM      8  N   UNL     1      -1.952  -1.644   2.476  1.00  0.00    -0.236 NA
ATOM      9  C   UNL     1      -4.240  -1.234   0.988  1.00  0.00     0.013 A 
ATOM     10  C   UNL     1      -3.077  -0.514   0.644  1.00  0.00     0.032 A 
ATOM     11  C   UNL     1      -3.078  -3.180   3.996  1.00  0.00     0.067 C 
BRANCH  10  12
ATOM     12  C   UNL     1      -3.176   0.575  -0.417  1.00  0.00     0.139 C 
ATOM     13  C   UNL     1      -2.213   1.772  -0.278  1.00  0.00     0.046 C 
ATOM     14  C   UNL     1      -4.535   1.311  -0.408  1.00  0.00     0.046 C 
ATOM     15  C   UNL     1      -2.885   2.970  -0.953  1.00  0.00     0.004 C 
ATOM     16  C   UNL     1      -4.301   2.534  -1.278  1.00  0.00     0.004 C 
ATOM     17  F   UNL     1      -3.043   0.063  -1.679  1.00  0.00    -0.239 F 
ENDBRANCH  10  12
ENDBRANCH   1   5
BRANCH   2  18
ATOM     18  C   UNL     1       1.440  -0.358  -0.117  1.00  0.00     0.118 A 
ATOM     19  S   UNL     1       2.310  -0.109   1.349  1.00  0.00    -0.109 S 
ATOM     20  C   UNL     1       2.292  -0.326  -1.221  1.00  0.00     0.065 A 
ATOM     21  C   UNL     1       3.747   0.037   0.507  1.00  0.00     0.113 A 
ATOM     22  C   UNL     1       3.659  -0.070  -0.862  1.00  0.00     0.038 A 
ATOM     23  N   UNL     1       4.961   0.258   1.131  1.00  0.00    -0.271 N 
ATOM     24  C   UNL     1       4.887   0.093  -1.634  1.00  0.00    -0.016 C 
ATOM     25  C   UNL     1       5.313   0.389   2.444  1.00  0.00     0.231 A 
ATOM     26  C   UNL     1       6.141   0.386   0.419  1.00  0.00     0.180 A 
ATOM     27  C   UNL     1       6.075   0.305  -1.005  1.00  0.00     0.089 C 
ATOM     28  N   UNL     1       6.609   0.579   2.544  1.00  0.00    -0.138 NA
ATOM     29  N   UNL     1       7.131   0.577   1.270  1.00  0.00    -0.129 NA
ATOM     30  C   UNL     1       4.741   0.044  -3.130  1.00  0.00     0.047 C 
ATOM     31  Cl  UNL     1       7.576   0.498  -1.847  1.00  0.00    -0.080 Cl
BRANCH  20  32
ATOM     32  N   UNL     1       1.824  -0.511  -2.478  1.00  0.00    -0.397 N 
ATOM     33  H   UNL     1       0.844  -0.801  -2.590  1.00  0.00     0.156 HD
ATOM     34  H   UNL     1       2.396  -0.920  -3.208  1.00  0.00     0.156 HD
ENDBRANCH  20  32
ENDBRANCH   2  18
TORSDOF 4
