REMARK SMILES Cc1c(Cl)c2nnc(C)n2c2sc(N3CC(NC(=O)c4cncc(F)c4)C3)c(N)c12
REMARK SMILES IDX 14 1 15 2 16 3 27 4 13 5 2 6 3 7 30 8 5 9 28 10 11 11 6 12
REMARK SMILES IDX 10 13 12 14 7 15 8 16 1 17 4 18 9 19 29 20 17 23 18 24 19 25
REMARK SMILES IDX 20 27 21 28 26 29 22 30 24 31 23 32 25 33
REMARK H PARENT 29 21 29 22 17 26
ROOT
ATOM      1  N   UNL     1       0.234  -0.313   0.823  1.00  0.00    -0.357 N 
ATOM      2  C   UNL     1       0.763  -0.178   2.161  1.00  0.00     0.144 C 
ATOM      3  C   UNL     1       1.779  -1.273   1.792  1.00  0.00     0.121 C 
ATOM      4  C   UNL     1       0.744  -1.664   0.720  1.00  0.00     0.144 C 
ENDROOT
BRANCH   1   5
ATOM      5  C   UNL     1      -1.020   0.076   0.423  1.00  0.00     0.117 A 
ATOM      6  C   UNL     1      -4.112   0.104  -1.776  1.00  0.00    -0.016 C 
ATOM      7  C   UNL     1      -5.275   0.787  -1.621  1.00  0.00     0.089 C 
ATOM      8  C   UNL     1      -3.029   0.263  -0.814  1.00  0.00     0.040 A 
ATOM      9  C   UNL     1      -5.468   1.653  -0.503  1.00  0.00     0.181 A 
ATOM     10  C   UNL     1      -1.686  -0.247  -0.763  1.00  0.00     0.076 A 
ATOM     11  C   UNL     1      -3.253   1.070   0.281  1.00  0.00     0.114 A 
ATOM     12  N   UNL     1      -6.481   2.413  -0.142  1.00  0.00    -0.129 NA
ATOM     13  N   UNL     1      -4.452   1.761   0.440  1.00  0.00    -0.268 N 
ATOM     14  S   UNL     1      -1.981   1.160   1.361  1.00  0.00    -0.097 S 
ATOM     15  N   UNL     1      -6.157   3.023   1.038  1.00  0.00    -0.135 NA
ATOM     16  C   UNL     1      -4.948   2.633   1.393  1.00  0.00     0.135 A 
ATOM     17  C   UNL     1      -3.886  -0.891  -2.882  1.00  0.00     0.047 C 
ATOM     18  Cl  UNL     1      -6.603   0.663  -2.727  1.00  0.00    -0.080 Cl
ATOM     19  C   UNL     1      -4.261   3.083   2.625  1.00  0.00     0.090 C 
BRANCH  10  20
ATOM     20  N   UNL     1      -1.080  -0.957  -1.751  1.00  0.00    -0.396 N 
ATOM     21  H   UNL     1      -0.065  -1.023  -1.712  1.00  0.00     0.156 HD
ATOM     22  H   UNL     1      -1.371  -0.830  -2.714  1.00  0.00     0.156 HD
ENDBRANCH  10  20
ENDBRANCH   1   5
BRANCH   3  23
ATOM     23  N   UNL     1       3.075  -0.769   1.253  1.00  0.00    -0.346 N 
ATOM     24  C   UNL     1       4.042  -1.641   0.797  1.00  0.00     0.253 C 
ATOM     25  O   UNL     1       3.923  -2.860   0.856  1.00  0.00    -0.269 OA
ATOM     26  H   UNL     1       3.242   0.229   1.244  1.00  0.00     0.164 HD
BRANCH  24  27
ATOM     27  C   UNL     1       5.277  -1.051   0.238  1.00  0.00     0.061 A 
ATOM     28  C   UNL     1       5.293   0.182  -0.407  1.00  0.00     0.125 A 
ATOM     29  C   UNL     1       6.474  -1.767   0.319  1.00  0.00     0.056 A 
ATOM     30  N   UNL     1       6.409   0.749  -0.930  1.00  0.00    -0.261 NA
ATOM     31  C   UNL     1       7.625  -1.210  -0.216  1.00  0.00     0.142 A 
ATOM     32  C   UNL     1       7.555   0.034  -0.820  1.00  0.00     0.150 A 
ATOM     33  F   UNL     1       8.789  -1.867  -0.145  1.00  0.00    -0.205 F 
ENDBRANCH  24  27
ENDBRANCH   3  23
TORSDOF 4
