REMARK SMILES Cc1c(Cl)c2nnc(C)n2c2sc(N3CC(C(=O)NC4CC4)C3)c(N)c12
REMARK SMILES IDX 1 1 2 2 3 3 4 4 5 5 6 6 7 7 8 8 9 9 10 10 11 11 12 12 13 13
REMARK SMILES IDX 24 14 26 15 25 16 14 19 15 20 23 21 16 22 17 23 18 24 19 25
REMARK SMILES IDX 20 27 21 28 22 29
REMARK H PARENT 25 17 25 18 19 26
ROOT
ATOM      1  C   UNL     1      -4.391   2.072   2.246  1.00  0.00     0.047 C 
ATOM      2  C   UNL     1      -4.377   1.052   1.142  1.00  0.00    -0.016 C 
ATOM      3  C   UNL     1      -5.499   0.441   0.683  1.00  0.00     0.089 C 
ATOM      4  Cl  UNL     1      -7.076   0.730   1.342  1.00  0.00    -0.080 Cl
ATOM      5  C   UNL     1      -5.435  -0.488  -0.398  1.00  0.00     0.181 A 
ATOM      6  N   UNL     1      -6.364  -1.196  -1.007  1.00  0.00    -0.129 NA
ATOM      7  N   UNL     1      -5.764  -1.921  -1.999  1.00  0.00    -0.135 NA
ATOM      8  C   UNL     1      -4.472  -1.654  -1.991  1.00  0.00     0.135 A 
ATOM      9  C   UNL     1      -3.495  -2.259  -2.924  1.00  0.00     0.090 C 
ATOM     10  N   UNL     1      -4.201  -0.743  -0.984  1.00  0.00    -0.268 N 
ATOM     11  C   UNL     1      -3.045  -0.124  -0.516  1.00  0.00     0.114 A 
ATOM     12  S   UNL     1      -1.536  -0.354  -1.193  1.00  0.00    -0.097 S 
ATOM     13  C   UNL     1      -0.780   0.667  -0.027  1.00  0.00     0.117 A 
ATOM     14  C   UNL     1      -1.745   1.220   0.823  1.00  0.00     0.076 A 
ATOM     15  C   UNL     1      -3.079   0.755   0.546  1.00  0.00     0.040 A 
ENDROOT
BRANCH  14  16
ATOM     16  N   UNL     1      -1.412   2.121   1.780  1.00  0.00    -0.396 N 
ATOM     17  H   UNL     1      -1.922   2.190   2.652  1.00  0.00     0.156 HD
ATOM     18  H   UNL     1      -0.438   2.383   1.892  1.00  0.00     0.156 HD
ENDBRANCH  14  16
BRANCH  13  19
ATOM     19  N   UNL     1       0.577   0.880  -0.009  1.00  0.00    -0.360 N 
ATOM     20  C   UNL     1       1.411   0.660   1.151  1.00  0.00     0.132 C 
ATOM     21  C   UNL     1       1.540   0.208  -0.853  1.00  0.00     0.132 C 
ATOM     22  C   UNL     1       2.602   0.614   0.178  1.00  0.00     0.117 C 
BRANCH  22  23
ATOM     23  C   UNL     1       3.725  -0.402   0.472  1.00  0.00     0.226 C 
ATOM     24  O   UNL     1       3.538  -1.511   0.979  1.00  0.00    -0.275 OA
ATOM     25  N   UNL     1       4.990   0.041   0.122  1.00  0.00    -0.353 N 
ATOM     26  H   UNL     1       5.098   0.962  -0.285  1.00  0.00     0.163 HD
BRANCH  25  27
ATOM     27  C   UNL     1       6.159  -0.760   0.303  1.00  0.00     0.082 C 
ATOM     28  C   UNL     1       6.741  -1.527  -0.851  1.00  0.00     0.027 C 
ATOM     29  C   UNL     1       7.476  -0.344  -0.292  1.00  0.00     0.027 C 
ENDBRANCH  25  27
ENDBRANCH  22  23
ENDBRANCH  13  19
TORSDOF 4
