REMARK SMILES Cc1ccc(C2Cc3ccccc3C2)c(NC(=O)c2sc3c(c(C)c(Cl)c4nncn43)c2N)n1
REMARK SMILES IDX 19 1 20 2 21 3 22 4 23 5 24 6 25 7 26 8 27 9 28 10 29 11
REMARK SMILES IDX 30 12 31 13 32 14 17 15 16 16 18 17 15 19 2 20 3 21 34 22
REMARK SMILES IDX 4 23 5 24 1 25 6 26 7 27 14 28 8 29 13 30 9 31 12 32 10 33
REMARK SMILES IDX 11 34 33 35
REMARK H PARENT 16 18 33 36 33 37
ROOT
ATOM      1  C   UNL     1       2.206  -0.316   0.245  1.00  0.00     0.118 A 
ATOM      2  S   UNL     1       3.093  -1.544  -0.577  1.00  0.00    -0.109 S 
ATOM      3  C   UNL     1       4.542  -0.823  -0.158  1.00  0.00     0.113 A 
ATOM      4  C   UNL     1       4.449   0.336   0.576  1.00  0.00     0.038 A 
ATOM      5  C   UNL     1       5.693   1.016   0.926  1.00  0.00    -0.016 C 
ATOM      6  C   UNL     1       5.552   2.321   1.660  1.00  0.00     0.047 C 
ATOM      7  C   UNL     1       6.894   0.488   0.566  1.00  0.00     0.089 C 
ATOM      8  Cl  UNL     1       8.412   1.226   0.951  1.00  0.00    -0.080 Cl
ATOM      9  C   UNL     1       6.960  -0.733  -0.173  1.00  0.00     0.180 A 
ATOM     10  N   UNL     1       7.962  -1.454  -0.640  1.00  0.00    -0.129 NA
ATOM     11  N   UNL     1       7.436  -2.542  -1.301  1.00  0.00    -0.138 NA
ATOM     12  C   UNL     1       6.127  -2.461  -1.223  1.00  0.00     0.231 A 
ATOM     13  N   UNL     1       5.770  -1.345  -0.521  1.00  0.00    -0.271 N 
ATOM     14  C   UNL     1       3.063   0.616   0.831  1.00  0.00     0.065 A 
ENDROOT
BRANCH   1  15
ATOM     15  C   UNL     1       0.738  -0.340   0.297  1.00  0.00     0.269 C 
ATOM     16  N   UNL     1       0.146  -1.337  -0.448  1.00  0.00    -0.306 N 
ATOM     17  O   UNL     1       0.111   0.454   0.996  1.00  0.00    -0.268 OA
ATOM     18  H   UNL     1       0.729  -2.141  -0.637  1.00  0.00     0.171 HD
BRANCH  16  19
ATOM     19  C   UNL     1      -1.207  -1.683  -0.469  1.00  0.00     0.136 A 
ATOM     20  C   UNL     1      -2.595  -3.553  -0.421  1.00  0.00     0.040 A 
ATOM     21  C   UNL     1      -3.726  -2.759  -0.378  1.00  0.00     0.024 A 
ATOM     22  N   UNL     1      -1.350  -3.031  -0.478  1.00  0.00    -0.236 NA
ATOM     23  C   UNL     1      -3.569  -1.379  -0.440  1.00  0.00     0.010 A 
ATOM     24  C   UNL     1      -2.291  -0.798  -0.524  1.00  0.00    -0.001 A 
ATOM     25  C   UNL     1      -2.717  -5.046  -0.393  1.00  0.00     0.067 C 
BRANCH  24  26
ATOM     26  C   UNL     1      -2.159   0.703  -0.766  1.00  0.00     0.032 C 
ATOM     27  C   UNL     1      -3.012   1.222  -1.959  1.00  0.00     0.044 C 
ATOM     28  C   UNL     1      -2.581   1.545   0.466  1.00  0.00     0.044 C 
ATOM     29  C   UNL     1      -4.180   1.870  -1.283  1.00  0.00    -0.044 A 
ATOM     30  C   UNL     1      -3.939   2.048   0.081  1.00  0.00    -0.044 A 
ATOM     31  C   UNL     1      -5.365   2.295  -1.861  1.00  0.00     0.004 A 
ATOM     32  C   UNL     1      -4.878   2.656   0.898  1.00  0.00     0.004 A 
ATOM     33  C   UNL     1      -6.322   2.900  -1.044  1.00  0.00     0.000 A 
ATOM     34  C   UNL     1      -6.080   3.080   0.327  1.00  0.00     0.000 A 
ENDBRANCH  24  26
ENDBRANCH  16  19
ENDBRANCH   1  15
BRANCH  14  35
ATOM     35  N   UNL     1       2.586   1.662   1.547  1.00  0.00    -0.397 N 
ATOM     36  H   UNL     1       3.116   2.078   2.304  1.00  0.00     0.156 HD
ATOM     37  H   UNL     1       1.581   1.683   1.759  1.00  0.00     0.156 HD
ENDBRANCH  14  35
TORSDOF 4
