REMARK SMILES Cc1c(Cl)c2nncn2c2sc(-c3cncc(N4CC([NH2+]C5Cc6ccccc6C5)C4)c3)c(N)c12
REMARK SMILES IDX 13 1 14 2 15 3 16 4 17 5 32 6 12 7 2 8 3 9 35 10 5 11 33 12
REMARK SMILES IDX 10 13 6 14 9 15 11 16 7 17 8 18 1 19 4 20 34 21 18 24 19 25
REMARK SMILES IDX 31 26 20 27 21 28 22 31 23 32 30 33 24 34 29 35 25 36 28 37
REMARK SMILES IDX 26 38 27 39
REMARK H PARENT 34 22 34 23 21 29 21 30
ROOT
ATOM      1  C   UNL     1      -2.365   0.342  -1.214  1.00  0.00     0.014 A 
ATOM      2  C   UNL     1      -2.134   1.206  -2.278  1.00  0.00     0.120 A 
ATOM      3  N   UNL     1      -0.902   1.543  -2.722  1.00  0.00    -0.262 NA
ATOM      4  C   UNL     1       0.148   0.976  -2.085  1.00  0.00     0.136 A 
ATOM      5  C   UNL     1       0.047   0.082  -1.018  1.00  0.00     0.056 A 
ATOM      6  C   UNL     1      -1.247  -0.217  -0.579  1.00  0.00     0.038 A 
ENDROOT
BRANCH   1   7
ATOM      7  C   UNL     1      -3.726   0.046  -0.767  1.00  0.00     0.062 A 
ATOM      8  C   UNL     1      -7.171   0.593   0.715  1.00  0.00    -0.016 C 
ATOM      9  C   UNL     1      -8.186  -0.302   0.859  1.00  0.00     0.089 C 
ATOM     10  C   UNL     1      -5.908   0.192   0.097  1.00  0.00     0.038 A 
ATOM     11  C   UNL     1      -8.036  -1.652   0.418  1.00  0.00     0.180 A 
ATOM     12  C   UNL     1      -4.684   0.886  -0.204  1.00  0.00     0.060 A 
ATOM     13  C   UNL     1      -5.789  -1.121  -0.304  1.00  0.00     0.112 A 
ATOM     14  N   UNL     1      -8.830  -2.705   0.442  1.00  0.00    -0.129 NA
ATOM     15  N   UNL     1      -6.831  -2.017  -0.152  1.00  0.00    -0.271 N 
ATOM     16  S   UNL     1      -4.317  -1.557  -0.968  1.00  0.00    -0.114 S 
ATOM     17  N   UNL     1      -8.154  -3.766  -0.115  1.00  0.00    -0.138 NA
ATOM     18  C   UNL     1      -6.963  -3.339  -0.468  1.00  0.00     0.231 A 
ATOM     19  C   UNL     1      -7.256   2.016   1.192  1.00  0.00     0.047 C 
ATOM     20  Cl  UNL     1      -9.711   0.096   1.576  1.00  0.00    -0.080 Cl
BRANCH  12  21
ATOM     21  N   UNL     1      -4.432   2.195   0.028  1.00  0.00    -0.397 N 
ATOM     22  H   UNL     1      -3.586   2.643  -0.316  1.00  0.00     0.156 HD
ATOM     23  H   UNL     1      -5.175   2.875   0.152  1.00  0.00     0.156 HD
ENDBRANCH  12  21
ENDBRANCH   1   7
BRANCH   5  24
ATOM     24  N   UNL     1       1.184  -0.469  -0.385  1.00  0.00    -0.358 N 
ATOM     25  C   UNL     1       1.242  -1.746   0.283  1.00  0.00     0.183 C 
ATOM     26  C   UNL     1       2.465  -0.699  -1.008  1.00  0.00     0.183 C 
ATOM     27  C   UNL     1       2.788  -1.562   0.240  1.00  0.00     0.221 C 
BRANCH  27  28
ATOM     28  N   UNL     1       3.277  -0.801   1.442  1.00  0.00    -0.338 N 
ATOM     29  H   UNL     1       3.137  -1.373   2.287  1.00  0.00     0.346 HD
ATOM     30  H   UNL     1       2.659   0.019   1.569  1.00  0.00     0.346 HD
BRANCH  28  31
ATOM     31  C   UNL     1       4.706  -0.365   1.378  1.00  0.00     0.191 C 
ATOM     32  C   UNL     1       4.848   1.129   1.013  1.00  0.00     0.101 C 
ATOM     33  C   UNL     1       5.650  -1.160   0.452  1.00  0.00     0.101 C 
ATOM     34  C   UNL     1       6.251   1.156   0.498  1.00  0.00    -0.039 A 
ATOM     35  C   UNL     1       6.708  -0.133   0.194  1.00  0.00    -0.039 A 
ATOM     36  C   UNL     1       7.052   2.265   0.287  1.00  0.00     0.004 A 
ATOM     37  C   UNL     1       7.974  -0.338  -0.327  1.00  0.00     0.004 A 
ATOM     38  C   UNL     1       8.334   2.066  -0.227  1.00  0.00     0.000 A 
ATOM     39  C   UNL     1       8.792   0.775  -0.531  1.00  0.00     0.000 A 
ENDBRANCH  28  31
ENDBRANCH  27  28
ENDBRANCH   5  24
TORSDOF 5
