REMARK SMILES Cc1c(Cl)c2nncn2c2sc(C(=O)NC(=O)c3cc(F)nc(F)c3)c(N)c12
REMARK SMILES IDX 1 1 2 2 3 3 4 4 5 5 6 6 7 7 8 8 9 9 10 10 11 11 12 12 26 13
REMARK SMILES IDX 28 14 27 15 13 18 14 19 15 20 16 21 17 22 18 24 19 25 25 26
REMARK SMILES IDX 20 27 23 28 22 29 21 30 24 31
REMARK H PARENT 27 16 27 17 15 23
ROOT
ATOM      1  C   UNL     1      -4.676  -0.473  -1.977  1.00  0.00     0.047 C 
ATOM      2  C   UNL     1      -4.096   0.188  -0.758  1.00  0.00    -0.016 C 
ATOM      3  C   UNL     1      -4.856   0.783   0.201  1.00  0.00     0.089 C 
ATOM      4  Cl  UNL     1      -6.581   0.895   0.115  1.00  0.00    -0.080 Cl
ATOM      5  C   UNL     1      -4.248   1.356   1.360  1.00  0.00     0.180 A 
ATOM      6  N   UNL     1      -4.728   1.981   2.419  1.00  0.00    -0.129 NA
ATOM      7  N   UNL     1      -3.673   2.306   3.241  1.00  0.00    -0.138 NA
ATOM      8  C   UNL     1      -2.573   1.874   2.668  1.00  0.00     0.231 A 
ATOM      9  N   UNL     1      -2.873   1.270   1.480  1.00  0.00    -0.271 N 
ATOM     10  C   UNL     1      -2.086   0.673   0.512  1.00  0.00     0.113 A 
ATOM     11  S   UNL     1      -0.423   0.553   0.643  1.00  0.00    -0.109 S 
ATOM     12  C   UNL     1      -0.328  -0.238  -0.886  1.00  0.00     0.118 A 
ATOM     13  C   UNL     1      -1.592  -0.383  -1.457  1.00  0.00     0.065 A 
ATOM     14  C   UNL     1      -2.642   0.136  -0.626  1.00  0.00     0.038 A 
ENDROOT
BRANCH  13  15
ATOM     15  N   UNL     1      -1.753  -0.969  -2.665  1.00  0.00    -0.397 N 
ATOM     16  H   UNL     1      -0.917  -1.203  -3.216  1.00  0.00     0.156 HD
ATOM     17  H   UNL     1      -2.535  -0.763  -3.276  1.00  0.00     0.156 HD
ENDBRANCH  13  15
BRANCH  12  18
ATOM     18  C   UNL     1       0.961  -0.650  -1.455  1.00  0.00     0.270 C 
ATOM     19  O   UNL     1       1.053  -1.066  -2.607  1.00  0.00    -0.268 OA
ATOM     20  N   UNL     1       2.055  -0.478  -0.618  1.00  0.00    -0.287 N 
ATOM     21  C   UNL     1       3.319  -0.983  -0.848  1.00  0.00     0.258 C 
ATOM     22  O   UNL     1       3.645  -1.730  -1.759  1.00  0.00    -0.269 OA
ATOM     23  H   UNL     1       1.854  -0.073   0.283  1.00  0.00     0.173 HD
BRANCH  21  24
ATOM     24  C   UNL     1       4.348  -0.620   0.161  1.00  0.00     0.049 A 
ATOM     25  C   UNL     1       5.383  -1.523   0.404  1.00  0.00     0.074 A 
ATOM     26  C   UNL     1       4.330   0.599   0.833  1.00  0.00     0.074 A 
ATOM     27  C   UNL     1       6.338  -1.174   1.337  1.00  0.00     0.216 A 
ATOM     28  C   UNL     1       5.341   0.842   1.744  1.00  0.00     0.216 A 
ATOM     29  N   UNL     1       6.336  -0.017   2.023  1.00  0.00    -0.191 NA
ATOM     30  F   UNL     1       7.328  -2.040   1.589  1.00  0.00    -0.185 F 
ATOM     31  F   UNL     1       5.328   2.010   2.400  1.00  0.00    -0.185 F 
ENDBRANCH  21  24
ENDBRANCH  12  18
TORSDOF 3
