REMARK SMILES Cc1c(Cl)c2nnc(C)n2c2sc(C(=O)Nc3cncc(C4Cc5ccccc5C4)c3)c(N)c12
REMARK SMILES IDX 1 1 2 2 3 3 4 4 5 5 6 6 7 7 8 8 9 9 10 10 11 11 12 12 13 13
REMARK SMILES IDX 32 14 34 15 33 16 14 19 15 20 16 21 17 23 18 24 31 25 19 26
REMARK SMILES IDX 21 27 20 28 22 29 23 30 30 31 24 32 29 33 25 34 28 35 26 36
REMARK SMILES IDX 27 37
REMARK H PARENT 33 17 33 18 16 22
ROOT
ATOM      1  C   UNL     1      -7.099   2.709   0.333  1.00  0.00     0.047 C 
ATOM      2  C   UNL     1      -6.592   1.417  -0.248  1.00  0.00    -0.016 C 
ATOM      3  C   UNL     1      -7.379   0.557  -0.943  1.00  0.00     0.089 C 
ATOM      4  Cl  UNL     1      -9.074   0.811  -1.195  1.00  0.00    -0.080 Cl
ATOM      5  C   UNL     1      -6.832  -0.627  -1.522  1.00  0.00     0.181 A 
ATOM      6  N   UNL     1      -7.378  -1.599  -2.223  1.00  0.00    -0.129 NA
ATOM      7  N   UNL     1      -6.396  -2.491  -2.553  1.00  0.00    -0.135 NA
ATOM      8  C   UNL     1      -5.254  -2.061  -2.054  1.00  0.00     0.135 A 
ATOM      9  C   UNL     1      -3.964  -2.770  -2.208  1.00  0.00     0.090 C 
ATOM     10  N   UNL     1      -5.471  -0.872  -1.377  1.00  0.00    -0.268 N 
ATOM     11  C   UNL     1      -4.658   0.003  -0.661  1.00  0.00     0.113 A 
ATOM     12  S   UNL     1      -3.012  -0.216  -0.453  1.00  0.00    -0.109 S 
ATOM     13  C   UNL     1      -2.886   1.210   0.498  1.00  0.00     0.118 A 
ATOM     14  C   UNL     1      -4.127   1.824   0.641  1.00  0.00     0.065 A 
ATOM     15  C   UNL     1      -5.173   1.137  -0.065  1.00  0.00     0.038 A 
ENDROOT
BRANCH  14  16
ATOM     16  N   UNL     1      -4.272   2.955   1.371  1.00  0.00    -0.397 N 
ATOM     17  H   UNL     1      -3.468   3.287   1.918  1.00  0.00     0.156 HD
ATOM     18  H   UNL     1      -5.137   3.175   1.852  1.00  0.00     0.156 HD
ENDBRANCH  14  16
BRANCH  13  19
ATOM     19  C   UNL     1      -1.604   1.633   1.077  1.00  0.00     0.267 C 
ATOM     20  O   UNL     1      -1.536   2.564   1.877  1.00  0.00    -0.268 OA
ATOM     21  N   UNL     1      -0.501   0.907   0.653  1.00  0.00    -0.320 N 
ATOM     22  H   UNL     1      -0.690   0.169  -0.013  1.00  0.00     0.170 HD
BRANCH  21  23
ATOM     23  C   UNL     1       0.844   1.083   1.037  1.00  0.00     0.060 A 
ATOM     24  C   UNL     1       1.309   2.037   1.934  1.00  0.00     0.137 A 
ATOM     25  C   UNL     1       1.794   0.226   0.470  1.00  0.00     0.033 A 
ATOM     26  N   UNL     1       2.612   2.179   2.283  1.00  0.00    -0.262 NA
ATOM     27  C   UNL     1       3.151   0.340   0.804  1.00  0.00    -0.024 A 
ATOM     28  C   UNL     1       3.496   1.333   1.715  1.00  0.00     0.115 A 
BRANCH  27  29
ATOM     29  C   UNL     1       4.176  -0.582   0.195  1.00  0.00     0.029 C 
ATOM     30  C   UNL     1       5.260   0.143  -0.640  1.00  0.00     0.044 C 
ATOM     31  C   UNL     1       4.936  -1.453   1.226  1.00  0.00     0.044 C 
ATOM     32  C   UNL     1       6.392  -0.835  -0.564  1.00  0.00    -0.044 A 
ATOM     33  C   UNL     1       6.209  -1.736   0.490  1.00  0.00    -0.044 A 
ATOM     34  C   UNL     1       7.526  -0.884  -1.357  1.00  0.00     0.004 A 
ATOM     35  C   UNL     1       7.156  -2.706   0.773  1.00  0.00     0.004 A 
ATOM     36  C   UNL     1       8.481  -1.867  -1.087  1.00  0.00     0.000 A 
ATOM     37  C   UNL     1       8.297  -2.771  -0.029  1.00  0.00     0.000 A 
ENDBRANCH  27  29
ENDBRANCH  21  23
ENDBRANCH  13  19
TORSDOF 4
