REMARK SMILES Cc1c(Cl)c2nncn2c2sc(C(=O)Nc3cncc(-c4ccc(F)c(F)c4)c3)c(N)c12
REMARK SMILES IDX 13 1 14 2 15 3 12 5 2 6 3 7 32 8 5 9 30 10 10 11 6 12 9 13
REMARK SMILES IDX 11 14 7 15 8 16 1 17 4 18 31 19 16 22 17 23 29 24 18 25
REMARK SMILES IDX 20 26 19 27 21 28 22 29 28 30 23 31 26 32 24 33 27 34 25 35
REMARK H PARENT 15 4 31 20 31 21
ROOT
ATOM      1  C   UNL     1      -0.668  -1.326   0.869  1.00  0.00     0.267 C 
ATOM      2  O   UNL     1      -0.659  -2.370   1.518  1.00  0.00    -0.268 OA
ATOM      3  N   UNL     1       0.482  -0.711   0.397  1.00  0.00    -0.320 N 
ATOM      4  H   UNL     1       0.340   0.147  -0.122  1.00  0.00     0.170 HD
ENDROOT
BRANCH   1   5
ATOM      5  C   UNL     1      -1.922  -0.639   0.536  1.00  0.00     0.118 A 
ATOM      6  C   UNL     1      -5.656   0.032   0.628  1.00  0.00    -0.016 C 
ATOM      7  C   UNL     1      -6.371   0.976  -0.043  1.00  0.00     0.089 C 
ATOM      8  C   UNL     1      -4.211  -0.073   0.445  1.00  0.00     0.038 A 
ATOM      9  C   UNL     1      -5.720   1.890  -0.927  1.00  0.00     0.180 A 
ATOM     10  C   UNL     1      -3.209  -0.957   0.972  1.00  0.00     0.065 A 
ATOM     11  C   UNL     1      -3.607   0.837  -0.392  1.00  0.00     0.113 A 
ATOM     12  N   UNL     1      -6.154   2.877  -1.688  1.00  0.00    -0.129 NA
ATOM     13  N   UNL     1      -4.347   1.793  -1.063  1.00  0.00    -0.271 N 
ATOM     14  S   UNL     1      -1.947   0.710  -0.538  1.00  0.00    -0.109 S 
ATOM     15  N   UNL     1      -5.069   3.437  -2.325  1.00  0.00    -0.138 NA
ATOM     16  C   UNL     1      -3.999   2.780  -1.940  1.00  0.00     0.231 A 
ATOM     17  C   UNL     1      -6.272  -0.926   1.610  1.00  0.00     0.047 C 
ATOM     18  Cl  UNL     1      -8.085   1.159   0.111  1.00  0.00    -0.080 Cl
BRANCH  10  19
ATOM     19  N   UNL     1      -3.431  -1.994   1.812  1.00  0.00    -0.397 N 
ATOM     20  H   UNL     1      -4.309  -2.499   1.829  1.00  0.00     0.156 HD
ATOM     21  H   UNL     1      -2.649  -2.623   2.030  1.00  0.00     0.156 HD
ENDBRANCH  10  19
ENDBRANCH   1   5
BRANCH   3  22
ATOM     22  C   UNL     1       1.816  -1.137   0.563  1.00  0.00     0.060 A 
ATOM     23  C   UNL     1       2.218  -2.277   1.251  1.00  0.00     0.137 A 
ATOM     24  C   UNL     1       2.822  -0.348  -0.007  1.00  0.00     0.038 A 
ATOM     25  N   UNL     1       3.511  -2.657   1.396  1.00  0.00    -0.262 NA
ATOM     26  C   UNL     1       4.176  -0.700   0.117  1.00  0.00     0.002 A 
ATOM     27  C   UNL     1       4.450  -1.866   0.830  1.00  0.00     0.119 A 
BRANCH  26  28
ATOM     28  C   UNL     1       5.245   0.118  -0.471  1.00  0.00    -0.014 A 
ATOM     29  C   UNL     1       5.227   0.458  -1.838  1.00  0.00     0.012 A 
ATOM     30  C   UNL     1       6.313   0.586   0.314  1.00  0.00     0.051 A 
ATOM     31  C   UNL     1       6.242   1.239  -2.402  1.00  0.00     0.043 A 
ATOM     32  C   UNL     1       7.320   1.364  -0.253  1.00  0.00     0.159 A 
ATOM     33  C   UNL     1       7.285   1.688  -1.602  1.00  0.00     0.158 A 
ATOM     34  F   UNL     1       8.324   1.800   0.519  1.00  0.00    -0.204 F 
ATOM     35  F   UNL     1       8.255   2.436  -2.144  1.00  0.00    -0.204 F 
ENDBRANCH  26  28
ENDBRANCH   3  22
TORSDOF 4
