REMARK SMILES Cc1c(Cl)c2nncn2c2sc(C(=O)Nc3cc(F)nc(F)c3)c(N)c12
REMARK SMILES IDX 1 1 2 2 3 3 4 4 5 5 6 6 7 7 8 8 9 9 10 10 11 11 12 12 24 13
REMARK SMILES IDX 26 14 25 15 13 18 14 19 15 20 16 22 17 23 23 24 18 25 21 26
REMARK SMILES IDX 20 27 19 28 22 29
REMARK H PARENT 25 16 25 17 15 21
ROOT
ATOM      1  C   UNL     1      -3.971  -1.985  -0.891  1.00  0.00     0.047 C 
ATOM      2  C   UNL     1      -3.676  -0.744  -0.095  1.00  0.00    -0.016 C 
ATOM      3  C   UNL     1      -4.644   0.046   0.442  1.00  0.00     0.089 C 
ATOM      4  Cl  UNL     1      -6.335  -0.303   0.318  1.00  0.00    -0.080 Cl
ATOM      5  C   UNL     1      -4.302   1.240   1.148  1.00  0.00     0.180 A 
ATOM      6  N   UNL     1      -5.016   2.168   1.756  1.00  0.00    -0.129 NA
ATOM      7  N   UNL     1      -4.151   3.114   2.260  1.00  0.00    -0.138 NA
ATOM      8  C   UNL     1      -2.930   2.743   1.949  1.00  0.00     0.231 A 
ATOM      9  N   UNL     1      -2.962   1.569   1.252  1.00  0.00    -0.271 N 
ATOM     10  C   UNL     1      -1.966   0.774   0.716  1.00  0.00     0.113 A 
ATOM     11  S   UNL     1      -0.343   1.161   0.823  1.00  0.00    -0.109 S 
ATOM     12  C   UNL     1       0.090  -0.277  -0.024  1.00  0.00     0.118 A 
ATOM     13  C   UNL     1      -1.041  -1.022  -0.360  1.00  0.00     0.065 A 
ATOM     14  C   UNL     1      -2.265  -0.394   0.053  1.00  0.00     0.038 A 
ENDROOT
BRANCH  13  15
ATOM     15  N   UNL     1      -0.939  -2.200  -1.017  1.00  0.00    -0.397 N 
ATOM     16  H   UNL     1      -1.633  -2.933  -0.926  1.00  0.00     0.156 HD
ATOM     17  H   UNL     1      -0.005  -2.604  -1.158  1.00  0.00     0.156 HD
ENDBRANCH  13  15
BRANCH  12  18
ATOM     18  C   UNL     1       1.495  -0.614  -0.287  1.00  0.00     0.267 C 
ATOM     19  O   UNL     1       1.817  -1.701  -0.762  1.00  0.00    -0.268 OA
ATOM     20  N   UNL     1       2.408   0.380   0.040  1.00  0.00    -0.321 N 
ATOM     21  H   UNL     1       2.005   1.228   0.420  1.00  0.00     0.170 HD
BRANCH  20  22
ATOM     22  C   UNL     1       3.813   0.350  -0.097  1.00  0.00     0.050 A 
ATOM     23  C   UNL     1       4.530  -0.729  -0.601  1.00  0.00     0.086 A 
ATOM     24  C   UNL     1       4.518   1.482   0.303  1.00  0.00     0.086 A 
ATOM     25  C   UNL     1       5.910  -0.625  -0.680  1.00  0.00     0.217 A 
ATOM     26  C   UNL     1       5.898   1.481   0.181  1.00  0.00     0.217 A 
ATOM     27  N   UNL     1       6.616   0.455  -0.301  1.00  0.00    -0.190 NA
ATOM     28  F   UNL     1       6.597  -1.668  -1.166  1.00  0.00    -0.185 F 
ATOM     29  F   UNL     1       6.567   2.576   0.569  1.00  0.00    -0.185 F 
ENDBRANCH  20  22
ENDBRANCH  12  18
TORSDOF 3
