REMARK SMILES Cc1c(Cl)c2nnc(C)n2c2sc(NC3Cc4ccccc4C3)c(N)c12
REMARK SMILES IDX 1 1 2 2 3 3 4 4 5 5 6 6 7 7 8 8 9 9 10 10 11 11 12 12 13 13
REMARK SMILES IDX 24 14 26 15 25 16 14 19 15 21 16 22 23 23 17 24 22 25 18 26
REMARK SMILES IDX 21 27 19 28 20 29
REMARK H PARENT 25 17 25 18 14 20
ROOT
ATOM      1  C   UNL     1       3.578   3.012  -0.777  1.00  0.00     0.047 C 
ATOM      2  C   UNL     1       3.646   1.512  -0.680  1.00  0.00    -0.016 C 
ATOM      3  C   UNL     1       4.713   0.785  -1.099  1.00  0.00     0.089 C 
ATOM      4  Cl  UNL     1       6.160   1.502  -1.726  1.00  0.00    -0.080 Cl
ATOM      5  C   UNL     1       4.688  -0.641  -1.051  1.00  0.00     0.181 A 
ATOM      6  N   UNL     1       5.579  -1.550  -1.390  1.00  0.00    -0.129 NA
ATOM      7  N   UNL     1       5.037  -2.784  -1.161  1.00  0.00    -0.135 NA
ATOM      8  C   UNL     1       3.818  -2.626  -0.684  1.00  0.00     0.135 A 
ATOM      9  C   UNL     1       2.918  -3.743  -0.318  1.00  0.00     0.090 C 
ATOM     10  N   UNL     1       3.539  -1.273  -0.586  1.00  0.00    -0.268 N 
ATOM     11  C   UNL     1       2.444  -0.534  -0.148  1.00  0.00     0.114 A 
ATOM     12  S   UNL     1       1.032  -1.218   0.438  1.00  0.00    -0.097 S 
ATOM     13  C   UNL     1       0.331   0.326   0.695  1.00  0.00     0.115 A 
ATOM     14  C   UNL     1       1.244   1.340   0.417  1.00  0.00     0.076 A 
ATOM     15  C   UNL     1       2.463   0.846  -0.155  1.00  0.00     0.040 A 
ENDROOT
BRANCH  14  16
ATOM     16  N   UNL     1       0.961   2.637   0.716  1.00  0.00    -0.396 N 
ATOM     17  H   UNL     1       1.722   3.256   0.973  1.00  0.00     0.156 HD
ATOM     18  H   UNL     1       0.188   2.765   1.369  1.00  0.00     0.156 HD
ENDBRANCH  14  16
BRANCH  13  19
ATOM     19  N   UNL     1      -0.946   0.419   1.177  1.00  0.00    -0.372 N 
ATOM     20  H   UNL     1      -1.347  -0.488   1.426  1.00  0.00     0.161 HD
BRANCH  19  21
ATOM     21  C   UNL     1      -1.943   1.193   0.394  1.00  0.00     0.088 C 
ATOM     22  C   UNL     1      -3.199   1.427   1.272  1.00  0.00     0.061 C 
ATOM     23  C   UNL     1      -2.440   0.390  -0.835  1.00  0.00     0.061 C 
ATOM     24  C   UNL     1      -4.046   0.238   0.926  1.00  0.00    -0.043 A 
ATOM     25  C   UNL     1      -3.615  -0.350  -0.268  1.00  0.00    -0.043 A 
ATOM     26  C   UNL     1      -5.144  -0.254   1.609  1.00  0.00     0.004 A 
ATOM     27  C   UNL     1      -4.273  -1.443  -0.805  1.00  0.00     0.004 A 
ATOM     28  C   UNL     1      -5.808  -1.364   1.082  1.00  0.00     0.000 A 
ATOM     29  C   UNL     1      -5.375  -1.954  -0.117  1.00  0.00     0.000 A 
ENDBRANCH  19  21
ENDBRANCH  13  19
TORSDOF 3
