REMARK SMILES Cc1c(Cl)nnc2sc(C(=O)Nc3sc4c(c(C)c(Cl)c5nncn54)c3N)c(N)c12
REMARK SMILES IDX 10 1 11 2 12 3 9 5 2 6 3 7 30 8 5 9 28 10 7 11 6 12 8 13
REMARK SMILES IDX 1 14 4 15 29 16 13 19 14 20 26 21 15 22 16 23 25 24 17 25
REMARK SMILES IDX 24 26 21 27 19 28 23 29 22 30 18 31 20 32 27 33
REMARK H PARENT 12 4 29 17 29 18 27 34 27 35
ROOT
ATOM      1  C   UNL     1       1.058   0.465  -0.276  1.00  0.00     0.268 C 
ATOM      2  O   UNL     1       1.004   1.547  -0.857  1.00  0.00    -0.268 OA
ATOM      3  N   UNL     1      -0.044  -0.283   0.108  1.00  0.00    -0.311 N 
ATOM      4  H   UNL     1       0.144  -1.153   0.586  1.00  0.00     0.171 HD
ENDROOT
BRANCH   1   5
ATOM      5  C   UNL     1       2.351  -0.145   0.059  1.00  0.00     0.118 A 
ATOM      6  C   UNL     1       6.105  -0.513   0.076  1.00  0.00     0.001 A 
ATOM      7  C   UNL     1       6.761  -1.503   0.815  1.00  0.00     0.155 A 
ATOM      8  C   UNL     1       4.688  -0.532   0.205  1.00  0.00     0.043 A 
ATOM      9  N   UNL     1       6.153  -2.459   1.554  1.00  0.00    -0.137 NA
ATOM     10  C   UNL     1       3.618   0.302  -0.290  1.00  0.00     0.065 A 
ATOM     11  C   UNL     1       4.146  -1.561   0.965  1.00  0.00     0.149 A 
ATOM     12  N   UNL     1       4.845  -2.508   1.617  1.00  0.00    -0.138 NA
ATOM     13  S   UNL     1       2.452  -1.561   1.019  1.00  0.00    -0.106 S 
ATOM     14  C   UNL     1       6.860   0.493  -0.740  1.00  0.00     0.048 C 
ATOM     15  Cl  UNL     1       8.480  -1.624   0.892  1.00  0.00    -0.060 Cl
BRANCH  10  16
ATOM     16  N   UNL     1       3.807   1.422  -1.029  1.00  0.00    -0.397 N 
ATOM     17  H   UNL     1       4.655   1.975  -0.951  1.00  0.00     0.156 HD
ATOM     18  H   UNL     1       2.995   2.019  -1.229  1.00  0.00     0.156 HD
ENDBRANCH  10  16
ENDBRANCH   1   5
BRANCH   3  19
ATOM     19  C   UNL     1      -1.384   0.043  -0.020  1.00  0.00     0.121 A 
ATOM     20  S   UNL     1      -1.893   1.542  -0.642  1.00  0.00    -0.097 S 
ATOM     21  C   UNL     1      -2.456  -0.768   0.343  1.00  0.00     0.077 A 
ATOM     22  C   UNL     1      -3.492   1.145  -0.366  1.00  0.00     0.114 A 
ATOM     23  C   UNL     1      -3.718  -0.095   0.191  1.00  0.00     0.040 A 
ATOM     24  N   UNL     1      -4.536   1.996  -0.676  1.00  0.00    -0.271 N 
ATOM     25  C   UNL     1      -5.102  -0.459   0.479  1.00  0.00    -0.016 C 
ATOM     26  C   UNL     1      -4.576   3.242  -1.233  1.00  0.00     0.231 A 
ATOM     27  C   UNL     1      -5.855   1.654  -0.441  1.00  0.00     0.180 A 
ATOM     28  C   UNL     1      -6.120   0.387   0.163  1.00  0.00     0.089 C 
ATOM     29  N   UNL     1      -5.823   3.643  -1.342  1.00  0.00    -0.138 NA
ATOM     30  N   UNL     1      -6.629   2.644  -0.844  1.00  0.00    -0.129 NA
ATOM     31  C   UNL     1      -5.313  -1.777   1.171  1.00  0.00     0.047 C 
ATOM     32  Cl  UNL     1      -7.786   0.024   0.464  1.00  0.00    -0.080 Cl
BRANCH  21  33
ATOM     33  N   UNL     1      -2.271  -2.040   0.783  1.00  0.00    -0.396 N 
ATOM     34  H   UNL     1      -3.047  -2.693   0.801  1.00  0.00     0.156 HD
ATOM     35  H   UNL     1      -1.423  -2.541   0.535  1.00  0.00     0.156 HD
ENDBRANCH  21  33
ENDBRANCH   3  19
TORSDOF 4
