REMARK SMILES O=C(Nc1cncc(F)c1)C1CN(c2ccc(F)c(F)c2)C1
REMARK SMILES IDX 11 1 12 2 13 3 22 4 2 5 1 6 3 7 4 9 5 10 10 11 6 12 8 13
REMARK SMILES IDX 7 14 9 15 14 16 15 17 21 18 16 19 19 20 17 21 20 22 18 23
REMARK H PARENT 3 8
ROOT
ATOM      1  C   UNL     1       0.068   2.398  -0.218  1.00  0.00     0.117 C 
ATOM      2  C   UNL     1      -0.897   1.687  -1.183  1.00  0.00     0.132 C 
ATOM      3  N   UNL     1      -1.261   0.853  -0.067  1.00  0.00    -0.370 N 
ATOM      4  C   UNL     1      -0.859   1.856   0.885  1.00  0.00     0.132 C 
ENDROOT
BRANCH   1   5
ATOM      5  C   UNL     1       1.551   1.950  -0.211  1.00  0.00     0.231 C 
ATOM      6  O   UNL     1       2.477   2.759  -0.304  1.00  0.00    -0.274 OA
ATOM      7  N   UNL     1       1.727   0.580  -0.093  1.00  0.00    -0.324 N 
ATOM      8  H   UNL     1       0.874   0.029  -0.025  1.00  0.00     0.169 HD
BRANCH   7   9
ATOM      9  C   UNL     1       2.944  -0.131  -0.057  1.00  0.00     0.062 A 
ATOM     10  C   UNL     1       4.215   0.441  -0.136  1.00  0.00     0.137 A 
ATOM     11  C   UNL     1       2.875  -1.520   0.069  1.00  0.00     0.068 A 
ATOM     12  N   UNL     1       5.376  -0.268  -0.100  1.00  0.00    -0.260 NA
ATOM     13  C   UNL     1       4.048  -2.262   0.108  1.00  0.00     0.143 A 
ATOM     14  C   UNL     1       5.263  -1.609   0.022  1.00  0.00     0.150 A 
ATOM     15  F   UNL     1       3.996  -3.594   0.227  1.00  0.00    -0.205 F 
ENDBRANCH   7   9
ENDBRANCH   1   5
BRANCH   3  16
ATOM     16  C   UNL     1      -2.382   0.003   0.024  1.00  0.00     0.040 A 
ATOM     17  C   UNL     1      -2.962  -0.548  -1.132  1.00  0.00     0.029 A 
ATOM     18  C   UNL     1      -2.922  -0.344   1.270  1.00  0.00     0.068 A 
ATOM     19  C   UNL     1      -4.064  -1.405  -1.048  1.00  0.00     0.044 A 
ATOM     20  C   UNL     1      -4.020  -1.198   1.349  1.00  0.00     0.160 A 
ATOM     21  C   UNL     1      -4.589  -1.724   0.197  1.00  0.00     0.158 A 
ATOM     22  F   UNL     1      -4.521  -1.511   2.552  1.00  0.00    -0.204 F 
ATOM     23  F   UNL     1      -5.643  -2.546   0.278  1.00  0.00    -0.204 F 
ENDBRANCH   3  16
TORSDOF 3
