REMARK SMILES O=C(NC1CC1)c1cc(-c2ccncc2Cl)c(Cl)cn1
REMARK SMILES IDX 7 1 8 2 9 3 17 4 18 5 19 6 20 7 2 8 1 9 3 10 4 12 5 13 6 14
REMARK SMILES IDX 10 15 11 16 15 17 12 18 14 19 13 20 16 21
REMARK H PARENT 3 11
ROOT
ATOM      1  C   UNL     1      -0.568  -0.004  -0.498  1.00  0.00     0.128 A 
ATOM      2  C   UNL     1       0.624   0.337   0.131  1.00  0.00     0.044 A 
ATOM      3  C   UNL     1       1.840  -0.029  -0.468  1.00  0.00     0.006 A 
ATOM      4  C   UNL     1       1.791  -0.724  -1.688  1.00  0.00     0.067 A 
ATOM      5  Cl  UNL     1       3.212  -1.212  -2.534  1.00  0.00    -0.082 Cl
ATOM      6  C   UNL     1       0.548  -1.020  -2.238  1.00  0.00     0.133 A 
ATOM      7  N   UNL     1      -0.636  -0.679  -1.678  1.00  0.00    -0.249 NA
ENDROOT
BRANCH   1   8
ATOM      8  C   UNL     1      -1.875   0.381   0.125  1.00  0.00     0.270 C 
ATOM      9  O   UNL     1      -1.917   1.017   1.172  1.00  0.00    -0.268 OA
ATOM     10  N   UNL     1      -2.980  -0.039  -0.588  1.00  0.00    -0.348 N 
ATOM     11  H   UNL     1      -2.795  -0.553  -1.446  1.00  0.00     0.164 HD
BRANCH  10  12
ATOM     12  C   UNL     1      -4.319   0.204  -0.170  1.00  0.00     0.082 C 
ATOM     13  C   UNL     1      -5.476  -0.433  -0.890  1.00  0.00     0.027 C 
ATOM     14  C   UNL     1      -5.117  -0.882   0.496  1.00  0.00     0.027 C 
ENDBRANCH  10  12
ENDBRANCH   1   8
BRANCH   3  15
ATOM     15  C   UNL     1       3.105   0.324   0.197  1.00  0.00     0.005 A 
ATOM     16  C   UNL     1       3.654   1.600   0.001  1.00  0.00     0.030 A 
ATOM     17  C   UNL     1       3.796  -0.567   1.033  1.00  0.00     0.067 A 
ATOM     18  C   UNL     1       4.846   1.928   0.630  1.00  0.00     0.111 A 
ATOM     19  C   UNL     1       4.983  -0.143   1.617  1.00  0.00     0.132 A 
ATOM     20  N   UNL     1       5.523   1.085   1.434  1.00  0.00    -0.263 NA
ATOM     21  Cl  UNL     1       3.221  -2.158   1.367  1.00  0.00    -0.082 Cl
ENDBRANCH   3  15
TORSDOF 3
