REMARK SMILES Cc1ccc(-c2sc3c(c(C)c(Cl)c4nnc(C)n43)c2N)c(C(=O)NC2CC2)n1
REMARK SMILES IDX 6 1 7 2 8 3 9 4 10 5 11 6 12 7 13 8 14 9 15 10 16 11 17 12
REMARK SMILES IDX 18 13 19 14 20 15 5 16 2 17 3 18 29 19 4 20 22 21 1 22 23 23
REMARK SMILES IDX 24 24 25 25 26 27 27 28 28 29 21 30
REMARK H PARENT 25 26 21 31 21 32
ROOT
ATOM      1  C   UNL     1      -0.707  -0.768   0.365  1.00  0.00     0.062 A 
ATOM      2  S   UNL     1      -1.847  -0.112  -0.735  1.00  0.00    -0.114 S 
ATOM      3  C   UNL     1      -2.585   0.761   0.489  1.00  0.00     0.113 A 
ATOM      4  C   UNL     1      -2.055   0.562   1.750  1.00  0.00     0.038 A 
ATOM      5  C   UNL     1      -2.695   1.240   2.871  1.00  0.00    -0.016 C 
ATOM      6  C   UNL     1      -2.158   0.921   4.239  1.00  0.00     0.047 C 
ATOM      7  C   UNL     1      -3.745   2.074   2.661  1.00  0.00     0.089 C 
ATOM      8  Cl  UNL     1      -4.553   2.922   3.938  1.00  0.00    -0.080 Cl
ATOM      9  C   UNL     1      -4.254   2.292   1.346  1.00  0.00     0.181 A 
ATOM     10  N   UNL     1      -5.246   3.032   0.897  1.00  0.00    -0.129 NA
ATOM     11  N   UNL     1      -5.321   2.867  -0.459  1.00  0.00    -0.135 NA
ATOM     12  C   UNL     1      -4.374   2.029  -0.832  1.00  0.00     0.135 A 
ATOM     13  C   UNL     1      -4.133   1.620  -2.234  1.00  0.00     0.090 C 
ATOM     14  N   UNL     1      -3.661   1.620   0.283  1.00  0.00    -0.268 N 
ATOM     15  C   UNL     1      -0.919  -0.315   1.661  1.00  0.00     0.060 A 
ENDROOT
BRANCH   1  16
ATOM     16  C   UNL     1       0.304  -1.688  -0.153  1.00  0.00     0.025 A 
ATOM     17  C   UNL     1       2.160  -3.507  -1.131  1.00  0.00     0.038 A 
ATOM     18  C   UNL     1       0.954  -3.977  -0.626  1.00  0.00     0.024 A 
ATOM     19  N   UNL     1       2.469  -2.191  -1.157  1.00  0.00    -0.247 NA
ATOM     20  C   UNL     1       0.026  -3.061  -0.135  1.00  0.00     0.014 A 
ATOM     21  C   UNL     1       1.543  -1.301  -0.667  1.00  0.00     0.137 A 
ATOM     22  C   UNL     1       3.177  -4.467  -1.670  1.00  0.00     0.067 C 
BRANCH  21  23
ATOM     23  C   UNL     1       2.005   0.137  -0.726  1.00  0.00     0.270 C 
ATOM     24  O   UNL     1       1.375   1.072  -0.248  1.00  0.00    -0.267 OA
ATOM     25  N   UNL     1       3.226   0.290  -1.361  1.00  0.00    -0.348 N 
ATOM     26  H   UNL     1       3.667  -0.567  -1.688  1.00  0.00     0.164 HD
BRANCH  25  27
ATOM     27  C   UNL     1       3.865   1.548  -1.543  1.00  0.00     0.082 C 
ATOM     28  C   UNL     1       5.088   1.669  -2.411  1.00  0.00     0.027 C 
ATOM     29  C   UNL     1       3.785   2.257  -2.866  1.00  0.00     0.027 C 
ENDBRANCH  25  27
ENDBRANCH  21  23
ENDBRANCH   1  16
BRANCH  15  30
ATOM     30  N   UNL     1      -0.111  -0.687   2.687  1.00  0.00    -0.397 N 
ATOM     31  H   UNL     1       0.775  -1.139   2.469  1.00  0.00     0.156 HD
ATOM     32  H   UNL     1       0.034  -0.036   3.453  1.00  0.00     0.156 HD
ENDBRANCH  15  30
TORSDOF 4
