REMARK SMILES Cc1c(Cl)c2nncn2c2sc(-c3cncc(NC(=O)C4CC4)c3)c(N)c12
REMARK SMILES IDX 1 1 2 2 3 3 4 4 5 5 6 6 7 7 8 8 9 9 10 10 11 11 12 12 25 13
REMARK SMILES IDX 27 14 26 15 13 18 14 19 24 20 15 21 17 22 16 23 18 24 19 25
REMARK SMILES IDX 20 26 21 28 22 29 23 30
REMARK H PARENT 26 16 26 17 18 27
ROOT
ATOM      1  C   UNL     1      -4.968  -2.123   0.262  1.00  0.00     0.047 C 
ATOM      2  C   UNL     1      -4.723  -0.692  -0.127  1.00  0.00    -0.016 C 
ATOM      3  C   UNL     1      -5.695   0.123  -0.618  1.00  0.00     0.089 C 
ATOM      4  Cl  UNL     1      -7.319  -0.402  -0.911  1.00  0.00    -0.080 Cl
ATOM      5  C   UNL     1      -5.417   1.492  -0.918  1.00  0.00     0.180 A 
ATOM      6  N   UNL     1      -6.148   2.480  -1.398  1.00  0.00    -0.129 NA
ATOM      7  N   UNL     1      -5.358   3.605  -1.465  1.00  0.00    -0.138 NA
ATOM      8  C   UNL     1      -4.163   3.280  -1.026  1.00  0.00     0.231 A 
ATOM      9  N   UNL     1      -4.139   1.961  -0.674  1.00  0.00    -0.271 N 
ATOM     10  C   UNL     1      -3.138   1.144  -0.183  1.00  0.00     0.112 A 
ATOM     11  S   UNL     1      -1.589   1.697   0.115  1.00  0.00    -0.114 S 
ATOM     12  C   UNL     1      -1.101   0.129   0.632  1.00  0.00     0.062 A 
ATOM     13  C   UNL     1      -2.144  -0.791   0.538  1.00  0.00     0.060 A 
ATOM     14  C   UNL     1      -3.369  -0.187   0.088  1.00  0.00     0.038 A 
ENDROOT
BRANCH  13  15
ATOM     15  N   UNL     1      -1.967  -2.098   0.846  1.00  0.00    -0.397 N 
ATOM     16  H   UNL     1      -2.589  -2.818   0.497  1.00  0.00     0.156 HD
ATOM     17  H   UNL     1      -1.028  -2.474   0.971  1.00  0.00     0.156 HD
ENDBRANCH  13  15
BRANCH  12  18
ATOM     18  C   UNL     1       0.274  -0.061   1.104  1.00  0.00     0.014 A 
ATOM     19  C   UNL     1       0.524  -0.565   2.376  1.00  0.00     0.120 A 
ATOM     20  C   UNL     1       1.383   0.231   0.300  1.00  0.00     0.039 A 
ATOM     21  N   UNL     1       1.760  -0.794   2.872  1.00  0.00    -0.262 NA
ATOM     22  C   UNL     1       2.680   0.018   0.777  1.00  0.00     0.060 A 
ATOM     23  C   UNL     1       2.810  -0.495   2.065  1.00  0.00     0.137 A 
BRANCH  22  24
ATOM     24  N   UNL     1       3.754   0.334  -0.081  1.00  0.00    -0.324 N 
ATOM     25  C   UNL     1       5.095   0.190   0.194  1.00  0.00     0.227 C 
ATOM     26  O   UNL     1       5.603  -0.220   1.225  1.00  0.00    -0.274 OA
ATOM     27  H   UNL     1       3.521   0.707  -0.992  1.00  0.00     0.169 HD
BRANCH  25  28
ATOM     28  C   UNL     1       5.970   0.631  -0.927  1.00  0.00     0.079 C 
ATOM     29  C   UNL     1       5.819   0.056  -2.317  1.00  0.00     0.014 C 
ATOM     30  C   UNL     1       7.005  -0.321  -1.481  1.00  0.00     0.014 C 
ENDBRANCH  25  28
ENDBRANCH  22  24
ENDBRANCH  12  18
TORSDOF 4
