REMARK SMILES Cc1c(Cl)c2nncn2c2sc(NC(=O)C3(F)CCCC3)c(N)c12
REMARK SMILES IDX 1 1 2 2 3 3 4 4 5 5 6 6 7 7 8 8 9 9 10 10 11 11 12 12 22 13
REMARK SMILES IDX 24 14 23 15 13 18 14 19 15 20 16 22 18 23 21 24 19 25 20 26
REMARK SMILES IDX 17 27
REMARK H PARENT 23 16 23 17 13 21
ROOT
ATOM      1  C   UNL     1      -3.892   2.247  -0.527  1.00  0.00     0.047 C 
ATOM      2  C   UNL     1      -3.960   0.764  -0.286  1.00  0.00    -0.016 C 
ATOM      3  C   UNL     1      -5.130   0.084  -0.141  1.00  0.00     0.089 C 
ATOM      4  Cl  UNL     1      -6.686   0.832  -0.266  1.00  0.00    -0.080 Cl
ATOM      5  C   UNL     1      -5.130  -1.317   0.136  1.00  0.00     0.180 A 
ATOM      6  N   UNL     1      -6.090  -2.204   0.319  1.00  0.00    -0.129 NA
ATOM      7  N   UNL     1      -5.504  -3.424   0.576  1.00  0.00    -0.138 NA
ATOM      8  C   UNL     1      -4.202  -3.256   0.544  1.00  0.00     0.231 A 
ATOM      9  N   UNL     1      -3.907  -1.951   0.268  1.00  0.00    -0.271 N 
ATOM     10  C   UNL     1      -2.710  -1.277   0.119  1.00  0.00     0.114 A 
ATOM     11  S   UNL     1      -1.223  -2.022   0.291  1.00  0.00    -0.097 S 
ATOM     12  C   UNL     1      -0.424  -0.553  -0.067  1.00  0.00     0.121 A 
ATOM     13  C   UNL     1      -1.309   0.491  -0.305  1.00  0.00     0.077 A 
ATOM     14  C   UNL     1      -2.680   0.068  -0.177  1.00  0.00     0.040 A 
ENDROOT
BRANCH  13  15
ATOM     15  N   UNL     1      -0.907   1.749  -0.601  1.00  0.00    -0.396 N 
ATOM     16  H   UNL     1      -1.452   2.336  -1.220  1.00  0.00     0.156 HD
ATOM     17  H   UNL     1       0.093   1.891  -0.799  1.00  0.00     0.156 HD
ENDBRANCH  13  15
BRANCH  12  18
ATOM     18  N   UNL     1       0.945  -0.706  -0.050  1.00  0.00    -0.313 N 
ATOM     19  C   UNL     1       1.881   0.234  -0.442  1.00  0.00     0.262 C 
ATOM     20  O   UNL     1       1.650   1.354  -0.891  1.00  0.00    -0.271 OA
ATOM     21  H   UNL     1       1.289  -1.635   0.174  1.00  0.00     0.170 HD
BRANCH  19  22
ATOM     22  C   UNL     1       3.304  -0.269  -0.179  1.00  0.00     0.189 C 
ATOM     23  C   UNL     1       3.739   0.027   1.263  1.00  0.00     0.051 C 
ATOM     24  C   UNL     1       4.366   0.377  -1.063  1.00  0.00     0.051 C 
ATOM     25  C   UNL     1       5.167   0.569   1.171  1.00  0.00     0.004 C 
ATOM     26  C   UNL     1       5.634   0.234  -0.236  1.00  0.00     0.004 C 
ATOM     27  F   UNL     1       3.379  -1.630  -0.351  1.00  0.00    -0.233 F 
ENDBRANCH  19  22
ENDBRANCH  12  18
TORSDOF 3
