REMARK SMILES Cc1ccc(NC(=O)c2sc3c(c(C)c(Cl)c4nncn43)c2N)c(C2CC2)n1
REMARK SMILES IDX 9 1 10 2 11 3 12 4 13 5 14 6 15 7 16 8 17 9 18 10 19 11
REMARK SMILES IDX 20 12 21 13 22 14 7 15 6 16 8 17 5 19 2 20 3 21 28 22 4 23
REMARK SMILES IDX 24 24 1 25 25 26 26 27 27 28 23 29
REMARK H PARENT 6 18 23 30 23 31
ROOT
ATOM      1  C   UNL     1       1.260   0.573  -0.144  1.00  0.00     0.118 A 
ATOM      2  S   UNL     1       1.295  -1.131   0.117  1.00  0.00    -0.109 S 
ATOM      3  C   UNL     1       2.963  -1.147   0.003  1.00  0.00     0.113 A 
ATOM      4  C   UNL     1       3.562   0.067  -0.244  1.00  0.00     0.038 A 
ATOM      5  C   UNL     1       5.015   0.086  -0.391  1.00  0.00    -0.016 C 
ATOM      6  C   UNL     1       5.630   1.414  -0.739  1.00  0.00     0.047 C 
ATOM      7  C   UNL     1       5.739  -1.057  -0.246  1.00  0.00     0.089 C 
ATOM      8  Cl  UNL     1       7.463  -1.116  -0.395  1.00  0.00    -0.080 Cl
ATOM      9  C   UNL     1       5.092  -2.298   0.037  1.00  0.00     0.180 A 
ATOM     10  N   UNL     1       5.534  -3.527   0.225  1.00  0.00    -0.129 NA
ATOM     11  N   UNL     1       4.449  -4.344   0.451  1.00  0.00    -0.138 NA
ATOM     12  C   UNL     1       3.369  -3.598   0.397  1.00  0.00     0.231 A 
ATOM     13  N   UNL     1       3.713  -2.300   0.143  1.00  0.00    -0.271 N 
ATOM     14  C   UNL     1       2.549   1.083  -0.306  1.00  0.00     0.065 A 
ENDROOT
BRANCH   1  15
ATOM     15  C   UNL     1      -0.007   1.319  -0.147  1.00  0.00     0.268 C 
ATOM     16  N   UNL     1      -1.144   0.530  -0.096  1.00  0.00    -0.320 N 
ATOM     17  O   UNL     1      -0.023   2.547  -0.191  1.00  0.00    -0.268 OA
ATOM     18  H   UNL     1      -0.975  -0.468  -0.064  1.00  0.00     0.170 HD
BRANCH  16  19
ATOM     19  C   UNL     1      -2.503   0.928  -0.075  1.00  0.00     0.063 A 
ATOM     20  C   UNL     1      -5.192   1.560  -0.042  1.00  0.00     0.038 A 
ATOM     21  C   UNL     1      -4.262   2.585  -0.089  1.00  0.00     0.025 A 
ATOM     22  N   UNL     1      -4.832   0.258  -0.011  1.00  0.00    -0.256 NA
ATOM     23  C   UNL     1      -2.907   2.263  -0.107  1.00  0.00     0.030 A 
ATOM     24  C   UNL     1      -3.508  -0.065  -0.020  1.00  0.00     0.067 A 
ATOM     25  C   UNL     1      -6.659   1.869  -0.025  1.00  0.00     0.067 C 
BRANCH  24  26
ATOM     26  C   UNL     1      -3.177  -1.550   0.004  1.00  0.00     0.040 C 
ATOM     27  C   UNL     1      -2.570  -2.178   1.239  1.00  0.00     0.011 C 
ATOM     28  C   UNL     1      -3.988  -2.489   0.869  1.00  0.00     0.011 C 
ENDBRANCH  24  26
ENDBRANCH  16  19
ENDBRANCH   1  15
BRANCH  14  29
ATOM     29  N   UNL     1       2.764   2.404  -0.508  1.00  0.00    -0.397 N 
ATOM     30  H   UNL     1       1.966   3.044  -0.418  1.00  0.00     0.156 HD
ATOM     31  H   UNL     1       3.621   2.860  -0.217  1.00  0.00     0.156 HD
ENDBRANCH  14  29
TORSDOF 4
