REMARK SMILES COc1cc2ccc(NC(=O)c3sc4c(c(C)c(Cl)c5nncn54)c3N)cc2nn1
REMARK SMILES IDX 9 1 10 2 11 3 8 5 3 6 4 7 30 8 5 9 29 10 6 11 28 12 7 13
REMARK SMILES IDX 27 14 2 15 1 16 12 17 13 18 25 19 14 20 15 21 24 22 16 23
REMARK SMILES IDX 23 24 20 25 18 26 22 27 21 28 17 29 19 30 26 31
REMARK H PARENT 9 4 26 32 26 33
ROOT
ATOM      1  N   UNL     1       0.444   0.121  -0.080  1.00  0.00    -0.321 N 
ATOM      2  C   UNL     1      -0.596   0.966   0.278  1.00  0.00     0.267 C 
ATOM      3  O   UNL     1      -0.451   1.986   0.950  1.00  0.00    -0.268 OA
ATOM      4  H   UNL     1       0.177  -0.684  -0.633  1.00  0.00     0.170 HD
ENDROOT
BRANCH   1   5
ATOM      5  C   UNL     1       1.815   0.238   0.230  1.00  0.00     0.043 A 
ATOM      6  C   UNL     1       6.718  -0.721   0.459  1.00  0.00     0.233 A 
ATOM      7  C   UNL     1       5.956   0.303   0.980  1.00  0.00     0.080 A 
ATOM      8  N   UNL     1       6.176  -1.716  -0.268  1.00  0.00    -0.112 NA
ATOM      9  C   UNL     1       4.579   0.298   0.741  1.00  0.00     0.008 A 
ATOM     10  N   UNL     1       4.823  -1.725  -0.504  1.00  0.00    -0.147 NA
ATOM     11  C   UNL     1       3.738   1.305   1.238  1.00  0.00     0.013 A 
ATOM     12  C   UNL     1       4.036  -0.751  -0.019  1.00  0.00     0.095 A 
ATOM     13  C   UNL     1       2.364   1.273   0.982  1.00  0.00     0.027 A 
ATOM     14  C   UNL     1       2.666  -0.763  -0.261  1.00  0.00     0.057 A 
BRANCH   6  15
ATOM     15  O   UNL     1       8.074  -0.685   0.713  1.00  0.00    -0.480 OA
ATOM     16  C   UNL     1       8.776  -1.783   0.137  1.00  0.00     0.280 C 
ENDBRANCH   6  15
ENDBRANCH   1   5
BRANCH   2  17
ATOM     17  C   UNL     1      -1.920   0.556  -0.210  1.00  0.00     0.118 A 
ATOM     18  S   UNL     1      -2.102  -0.757  -1.313  1.00  0.00    -0.109 S 
ATOM     19  C   UNL     1      -3.154   1.136   0.088  1.00  0.00     0.065 A 
ATOM     20  C   UNL     1      -3.758  -0.533  -1.356  1.00  0.00     0.113 A 
ATOM     21  C   UNL     1      -4.251   0.482  -0.568  1.00  0.00     0.038 A 
ATOM     22  N   UNL     1      -4.599  -1.313  -2.129  1.00  0.00    -0.271 N 
ATOM     23  C   UNL     1      -5.698   0.681  -0.549  1.00  0.00    -0.016 C 
ATOM     24  C   UNL     1      -4.366  -2.350  -2.986  1.00  0.00     0.231 A 
ATOM     25  C   UNL     1      -5.969  -1.120  -2.148  1.00  0.00     0.180 A 
ATOM     26  C   UNL     1      -6.512  -0.092  -1.319  1.00  0.00     0.089 C 
ATOM     27  N   UNL     1      -5.499  -2.767  -3.503  1.00  0.00    -0.138 NA
ATOM     28  N   UNL     1      -6.509  -1.994  -2.977  1.00  0.00    -0.129 NA
ATOM     29  C   UNL     1      -6.209   1.745   0.382  1.00  0.00     0.047 C 
ATOM     30  Cl  UNL     1      -8.233   0.087  -1.360  1.00  0.00    -0.080 Cl
BRANCH  19  31
ATOM     31  N   UNL     1      -3.251   2.197   0.923  1.00  0.00    -0.397 N 
ATOM     32  H   UNL     1      -3.996   2.880   0.841  1.00  0.00     0.156 HD
ATOM     33  H   UNL     1      -2.384   2.647   1.239  1.00  0.00     0.156 HD
ENDBRANCH  19  31
ENDBRANCH   2  17
TORSDOF 4
