REMARK SMILES COc1nc(C)ccc1C(=O)NC1Cc2ccccc2C1
REMARK SMILES IDX 3 1 4 2 5 3 6 4 7 5 8 6 9 7 2 8 1 9 10 10 11 11 12 12 13 14
REMARK SMILES IDX 14 15 21 16 15 17 20 18 16 19 19 20 17 21 18 22
REMARK H PARENT 12 13
ROOT
ATOM      1  C   UNL     1       2.676  -0.210   0.087  1.00  0.00     0.226 A 
ATOM      2  N   UNL     1       4.002  -0.477  -0.037  1.00  0.00    -0.218 NA
ATOM      3  C   UNL     1       4.845   0.562  -0.240  1.00  0.00     0.041 A 
ATOM      4  C   UNL     1       6.305   0.249  -0.375  1.00  0.00     0.067 C 
ATOM      5  C   UNL     1       4.402   1.875  -0.327  1.00  0.00     0.024 A 
ATOM      6  C   UNL     1       3.039   2.129  -0.196  1.00  0.00     0.021 A 
ATOM      7  C   UNL     1       2.140   1.076   0.020  1.00  0.00     0.101 A 
ENDROOT
BRANCH   1   8
ATOM      8  O   UNL     1       1.822  -1.281   0.280  1.00  0.00    -0.480 OA
ATOM      9  C   UNL     1       2.485  -2.542   0.315  1.00  0.00     0.280 C 
ENDBRANCH   1   8
BRANCH   7  10
ATOM     10  C   UNL     1       0.695   1.418   0.151  1.00  0.00     0.257 C 
ATOM     11  O   UNL     1       0.318   2.566  -0.072  1.00  0.00    -0.269 OA
ATOM     12  N   UNL     1      -0.177   0.419   0.523  1.00  0.00    -0.348 N 
ATOM     13  H   UNL     1       0.175  -0.533   0.540  1.00  0.00     0.164 HD
BRANCH  12  14
ATOM     14  C   UNL     1      -1.615   0.628   0.540  1.00  0.00     0.091 C 
ATOM     15  C   UNL     1      -2.235   0.639  -0.877  1.00  0.00     0.061 C 
ATOM     16  C   UNL     1      -2.363  -0.465   1.335  1.00  0.00     0.061 C 
ATOM     17  C   UNL     1      -3.618   0.132  -0.606  1.00  0.00    -0.043 A 
ATOM     18  C   UNL     1      -3.691  -0.491   0.644  1.00  0.00    -0.043 A 
ATOM     19  C   UNL     1      -4.722   0.190  -1.440  1.00  0.00     0.004 A 
ATOM     20  C   UNL     1      -4.869  -1.069   1.087  1.00  0.00     0.004 A 
ATOM     21  C   UNL     1      -5.917  -0.379  -0.997  1.00  0.00     0.000 A 
ATOM     22  C   UNL     1      -5.990  -1.005   0.257  1.00  0.00     0.000 A 
ENDBRANCH  12  14
ENDBRANCH   7  10
TORSDOF 3
