REMARK SMILES Cc1ccc(C2CC2)c(NC(=O)c2sc3c(c(C)c(Cl)c4nnc(C)n43)c2N)n1
REMARK SMILES IDX 13 1 14 2 15 3 16 4 17 5 18 6 19 7 20 8 21 9 22 10 23 11
REMARK SMILES IDX 24 12 25 13 26 14 27 15 11 16 10 17 12 18 9 20 2 21 3 22
REMARK SMILES IDX 29 23 4 24 5 25 1 26 6 27 7 28 8 29 28 30
REMARK H PARENT 10 19 28 31 28 32
ROOT
ATOM      1  C   UNL     1       0.708  -1.029  -0.185  1.00  0.00     0.118 A 
ATOM      2  S   UNL     1       1.357   0.507   0.231  1.00  0.00    -0.109 S 
ATOM      3  C   UNL     1       2.922  -0.018  -0.047  1.00  0.00     0.113 A 
ATOM      4  C   UNL     1       3.028  -1.325  -0.476  1.00  0.00     0.038 A 
ATOM      5  C   UNL     1       4.359  -1.835  -0.785  1.00  0.00    -0.016 C 
ATOM      6  C   UNL     1       4.426  -3.233  -1.337  1.00  0.00     0.047 C 
ATOM      7  C   UNL     1       5.453  -1.052  -0.607  1.00  0.00     0.089 C 
ATOM      8  Cl  UNL     1       7.067  -1.586  -0.940  1.00  0.00    -0.080 Cl
ATOM      9  C   UNL     1       5.323   0.287  -0.132  1.00  0.00     0.181 A 
ATOM     10  N   UNL     1       6.213   1.224   0.121  1.00  0.00    -0.129 NA
ATOM     11  N   UNL     1       5.549   2.342   0.542  1.00  0.00    -0.135 NA
ATOM     12  C   UNL     1       4.256   2.085   0.546  1.00  0.00     0.135 A 
ATOM     13  C   UNL     1       3.218   3.062   0.946  1.00  0.00     0.090 C 
ATOM     14  N   UNL     1       4.049   0.781   0.127  1.00  0.00    -0.268 N 
ATOM     15  C   UNL     1       1.722  -1.920  -0.527  1.00  0.00     0.065 A 
ENDROOT
BRANCH   1  16
ATOM     16  C   UNL     1      -0.739  -1.296  -0.125  1.00  0.00     0.269 C 
ATOM     17  N   UNL     1      -1.511  -0.174   0.106  1.00  0.00    -0.306 N 
ATOM     18  O   UNL     1      -1.172  -2.436  -0.275  1.00  0.00    -0.268 OA
ATOM     19  H   UNL     1      -1.020   0.700   0.199  1.00  0.00     0.171 HD
BRANCH  17  20
ATOM     20  C   UNL     1      -2.910  -0.125   0.211  1.00  0.00     0.136 A 
ATOM     21  C   UNL     1      -4.959  -1.226   0.231  1.00  0.00     0.040 A 
ATOM     22  C   UNL     1      -5.641  -0.046   0.471  1.00  0.00     0.024 A 
ATOM     23  N   UNL     1      -3.616  -1.269   0.107  1.00  0.00    -0.236 NA
ATOM     24  C   UNL     1      -4.908   1.131   0.577  1.00  0.00     0.010 A 
ATOM     25  C   UNL     1      -3.510   1.131   0.436  1.00  0.00    -0.002 A 
ATOM     26  C   UNL     1      -5.701  -2.522   0.107  1.00  0.00     0.067 C 
BRANCH  25  27
ATOM     27  C   UNL     1      -2.733   2.429   0.573  1.00  0.00     0.023 C 
ATOM     28  C   UNL     1      -3.199   3.681  -0.138  1.00  0.00     0.009 C 
ATOM     29  C   UNL     1      -1.961   2.982  -0.606  1.00  0.00     0.009 C 
ENDBRANCH  25  27
ENDBRANCH  17  20
ENDBRANCH   1  16
BRANCH  15  30
ATOM     30  N   UNL     1       1.445  -3.201  -0.873  1.00  0.00    -0.397 N 
ATOM     31  H   UNL     1       0.473  -3.521  -0.765  1.00  0.00     0.156 HD
ATOM     32  H   UNL     1       2.084  -3.957  -0.656  1.00  0.00     0.156 HD
ENDBRANCH  15  30
TORSDOF 4
