REMARK SMILES O=C(NC1CN(c2ccncc2Cl)C1)C1Cc2ccccc2C1
REMARK SMILES IDX 4 1 5 2 6 3 14 4 3 5 1 6 2 7 15 9 16 10 23 11 17 12 22 13
REMARK SMILES IDX 18 14 21 15 19 16 20 17 7 18 8 19 12 20 9 21 11 22 10 23
REMARK SMILES IDX 13 24
REMARK H PARENT 3 8
ROOT
ATOM      1  C   UNL     1      -1.467  -1.749   0.389  1.00  0.00     0.120 C 
ATOM      2  C   UNL     1      -2.401  -1.589  -0.823  1.00  0.00     0.143 C 
ATOM      3  N   UNL     1      -3.328  -0.930   0.055  1.00  0.00    -0.366 N 
ATOM      4  C   UNL     1      -2.292  -0.608   1.006  1.00  0.00     0.143 C 
ENDROOT
BRANCH   1   5
ATOM      5  N   UNL     1      -0.039  -1.451   0.123  1.00  0.00    -0.350 N 
ATOM      6  O   UNL     1       0.464  -0.984   2.305  1.00  0.00    -0.275 OA
ATOM      7  C   UNL     1       0.826  -1.094   1.138  1.00  0.00     0.224 C 
ATOM      8  H   UNL     1       0.348  -1.629  -0.796  1.00  0.00     0.163 HD
BRANCH   7   9
ATOM      9  C   UNL     1       2.256  -0.885   0.680  1.00  0.00     0.087 C 
ATOM     10  C   UNL     1       2.370   0.243  -0.365  1.00  0.00     0.049 C 
ATOM     11  C   UNL     1       3.204  -0.501   1.833  1.00  0.00     0.049 C 
ATOM     12  C   UNL     1       3.766   0.726  -0.134  1.00  0.00    -0.044 A 
ATOM     13  C   UNL     1       4.241   0.301   1.110  1.00  0.00    -0.044 A 
ATOM     14  C   UNL     1       4.541   1.522  -0.961  1.00  0.00     0.004 A 
ATOM     15  C   UNL     1       5.501   0.662   1.555  1.00  0.00     0.004 A 
ATOM     16  C   UNL     1       5.818   1.881  -0.526  1.00  0.00     0.000 A 
ATOM     17  C   UNL     1       6.295   1.454   0.723  1.00  0.00     0.000 A 
ENDBRANCH   7   9
ENDBRANCH   1   5
BRANCH   3  18
ATOM     18  C   UNL     1      -4.447  -0.121  -0.276  1.00  0.00     0.059 A 
ATOM     19  C   UNL     1      -4.870   0.847   0.653  1.00  0.00     0.047 A 
ATOM     20  C   UNL     1      -5.197  -0.236  -1.458  1.00  0.00     0.082 A 
ATOM     21  C   UNL     1      -5.961   1.655   0.368  1.00  0.00     0.113 A 
ATOM     22  C   UNL     1      -6.278   0.624  -1.649  1.00  0.00     0.133 A 
ATOM     23  N   UNL     1      -6.674   1.572  -0.769  1.00  0.00    -0.263 NA
ATOM     24  Cl  UNL     1      -4.892  -1.394  -2.700  1.00  0.00    -0.080 Cl
ENDBRANCH   3  18
TORSDOF 3
